 Entering Gaussian System, Link 0=g16
 Initial command:
 /gpfs/research/software/gaussian16/amd/g16/l1.exe "/gpfs/home/gdb20/code/input_macros/temp/oh_radical_pbepbe_6-311++Gdp/Gau-190170.inp" -scrdir="/gpfs/home/gdb20/code/input_macros/temp/oh_radical_pbepbe_6-311++Gdp/"
 Entering Link 1 = /gpfs/research/software/gaussian16/amd/g16/l1.exe PID=    190174.
  
 Copyright (c) 1988-2019, Gaussian, Inc.  All Rights Reserved.
  
 This is part of the Gaussian(R) 16 program.  It is based on
 the Gaussian(R) 09 system (copyright 2009, Gaussian, Inc.),
 the Gaussian(R) 03 system (copyright 2003, Gaussian, Inc.),
 the Gaussian(R) 98 system (copyright 1998, Gaussian, Inc.),
 the Gaussian(R) 94 system (copyright 1995, Gaussian, Inc.),
 the Gaussian 92(TM) system (copyright 1992, Gaussian, Inc.),
 the Gaussian 90(TM) system (copyright 1990, Gaussian, Inc.),
 the Gaussian 88(TM) system (copyright 1988, Gaussian, Inc.),
 the Gaussian 86(TM) system (copyright 1986, Carnegie Mellon
 University), and the Gaussian 82(TM) system (copyright 1983,
 Carnegie Mellon University). Gaussian is a federally registered
 trademark of Gaussian, Inc.
  
 This software contains proprietary and confidential information,
 including trade secrets, belonging to Gaussian, Inc.
  
 This software is provided under written license and may be
 used, copied, transmitted, or stored only in accord with that
 written license.
  
 The following legend is applicable only to US Government
 contracts under FAR:
  
                    RESTRICTED RIGHTS LEGEND
  
 Use, reproduction and disclosure by the US Government is
 subject to restrictions as set forth in subparagraphs (a)
 and (c) of the Commercial Computer Software - Restricted
 Rights clause in FAR 52.227-19.
  
 Gaussian, Inc.
 340 Quinnipiac St., Bldg. 40, Wallingford CT 06492
  
  
 ---------------------------------------------------------------
 Warning -- This program may not be used in any manner that
 competes with the business of Gaussian, Inc. or will provide
 assistance to any competitor of Gaussian, Inc.  The licensee
 of this program is prohibited from giving any competitor of
 Gaussian, Inc. access to this program.  By using this program,
 the user acknowledges that Gaussian, Inc. is engaged in the
 business of creating and licensing software in the field of
 computational chemistry and represents and warrants to the
 licensee that it is not a competitor of Gaussian, Inc. and that
 it will not use this program in any manner prohibited above.
 ---------------------------------------------------------------
  

 Cite this work as:
 Gaussian 16, Revision C.01,
 M. J. Frisch, G. W. Trucks, H. B. Schlegel, G. E. Scuseria, 
 M. A. Robb, J. R. Cheeseman, G. Scalmani, V. Barone, 
 G. A. Petersson, H. Nakatsuji, X. Li, M. Caricato, A. V. Marenich, 
 J. Bloino, B. G. Janesko, R. Gomperts, B. Mennucci, H. P. Hratchian, 
 J. V. Ortiz, A. F. Izmaylov, J. L. Sonnenberg, D. Williams-Young, 
 F. Ding, F. Lipparini, F. Egidi, J. Goings, B. Peng, A. Petrone, 
 T. Henderson, D. Ranasinghe, V. G. Zakrzewski, J. Gao, N. Rega, 
 G. Zheng, W. Liang, M. Hada, M. Ehara, K. Toyota, R. Fukuda, 
 J. Hasegawa, M. Ishida, T. Nakajima, Y. Honda, O. Kitao, H. Nakai, 
 T. Vreven, K. Throssell, J. A. Montgomery, Jr., J. E. Peralta, 
 F. Ogliaro, M. J. Bearpark, J. J. Heyd, E. N. Brothers, K. N. Kudin, 
 V. N. Staroverov, T. A. Keith, R. Kobayashi, J. Normand, 
 K. Raghavachari, A. P. Rendell, J. C. Burant, S. S. Iyengar, 
 J. Tomasi, M. Cossi, J. M. Millam, M. Klene, C. Adamo, R. Cammi, 
 J. W. Ochterski, R. L. Martin, K. Morokuma, O. Farkas, 
 J. B. Foresman, and D. J. Fox, Gaussian, Inc., Wallingford CT, 2019.
 
 ******************************************
 Gaussian 16:  EM64L-G16RevC.01  3-Jul-2019
                 5-Oct-2024 
 ******************************************
 %nprocshared=1
 Will use up to    1 processors via shared memory.
 %mem=2gb
 %chk=/gpfs/home/gdb20/code/input_macros/temp/oh_radical_pbepbe_6-311++Gdp/oh_rad
 ical_pbepbe_6-311++Gdp.chk
 ----------------------------
 #upbepbe/6-31g(d,p) OPT FREQ
 ----------------------------
 1/18=20,19=15,26=3,38=1/1,3;
 2/9=110,12=2,17=6,18=5,40=1/2;
 3/5=1,6=6,7=101,11=2,25=1,30=1,71=1,74=1009,116=2/1,2,3;
 4//1;
 5/5=2,38=5/2;
 6/7=2,8=2,9=2,10=2,28=1/1;
 7//1,2,3,16;
 1/18=20,19=15,26=3/3(2);
 2/9=110/2;
 99//99;
 2/9=110/2;
 3/5=1,6=6,7=101,11=2,25=1,30=1,71=1,74=1009,116=2/1,2,3;
 4/5=5,16=3,69=1/1;
 5/5=2,38=5/2;
 7//1,2,3,16;
 1/18=20,19=15,26=3/3(-5);
 2/9=110/2;
 6/7=2,8=2,9=2,10=2,19=2,28=1/1;
 99/9=1/99;
 ---------------------------
 created with so and so tool
 ---------------------------
 Symbolic Z-matrix:
 Charge =  0 Multiplicity = 2
 O                    -0.282     0.618     0. 
 H                    -1.129     0.606     0. 
 

 GradGradGradGradGradGradGradGradGradGradGradGradGradGradGradGradGradGrad
 Berny optimization.
 Initialization pass.
                           ----------------------------
                           !    Initial Parameters    !
                           ! (Angstroms and Degrees)  !
 --------------------------                            --------------------------
 ! Name  Definition              Value          Derivative Info.                !
 --------------------------------------------------------------------------------
 ! R1    R(1,2)                  0.8471         estimate D2E/DX2                !
 --------------------------------------------------------------------------------
 Trust Radius=3.00D-01 FncErr=1.00D-07 GrdErr=1.00D-06 EigMax=2.50D+02 EigMin=1.00D-04
 Number of steps in this run=     20 maximum allowed number of steps=    100.
 GradGradGradGradGradGradGradGradGradGradGradGradGradGradGradGradGradGrad

                          Input orientation:                          
 ---------------------------------------------------------------------
 Center     Atomic      Atomic             Coordinates (Angstroms)
 Number     Number       Type             X           Y           Z
 ---------------------------------------------------------------------
      1          8           0       -0.282000    0.618000    0.000000
      2          1           0       -1.129000    0.606000    0.000000
 ---------------------------------------------------------------------
 Stoichiometry    HO(2)
 Framework group  C*V[C*(HO)]
 Deg. of freedom     1
 Full point group                 C*V     NOp   4
 Largest Abelian subgroup         C2V     NOp   4
 Largest concise Abelian subgroup C1      NOp   1
                         Standard orientation:                         
 ---------------------------------------------------------------------
 Center     Atomic      Atomic             Coordinates (Angstroms)
 Number     Number       Type             X           Y           Z
 ---------------------------------------------------------------------
      1          8           0        0.000000    0.000000    0.094121
      2          1           0       -0.000000    0.000000   -0.752964
 ---------------------------------------------------------------------
 Rotational constants (GHZ):           0.0000000         742.8738155         742.8738155
 Standard basis: 6-31G(d,p) (6D, 7F)
 There are    11 symmetry adapted cartesian basis functions of A1  symmetry.
 There are     1 symmetry adapted cartesian basis functions of A2  symmetry.
 There are     4 symmetry adapted cartesian basis functions of B1  symmetry.
 There are     4 symmetry adapted cartesian basis functions of B2  symmetry.
 There are    11 symmetry adapted basis functions of A1  symmetry.
 There are     1 symmetry adapted basis functions of A2  symmetry.
 There are     4 symmetry adapted basis functions of B1  symmetry.
 There are     4 symmetry adapted basis functions of B2  symmetry.
    20 basis functions,    35 primitive gaussians,    20 cartesian basis functions
     5 alpha electrons        4 beta electrons
       nuclear repulsion energy         4.9976303195 Hartrees.
 NAtoms=    2 NActive=    2 NUniq=    2 SFac= 1.00D+00 NAtFMM=   60 NAOKFM=F Big=F
 Integral buffers will be    131072 words long.
 Raffenetti 2 integral format.
 Two-electron integral symmetry is turned on.
 One-electron integrals computed using PRISM.
 NBasis=    20 RedAO= T EigKep=  2.46D-02  NBF=    11     1     4     4
 NBsUse=    20 1.00D-06 EigRej= -1.00D+00 NBFU=    11     1     4     4
 ExpMin= 1.61D-01 ExpMax= 5.48D+03 ExpMxC= 8.25D+02 IAcc=3 IRadAn=         5 AccDes= 0.00D+00
 Harris functional with IExCor= 1009 and IRadAn=       5 diagonalized for initial guess.
 HarFok:  IExCor= 1009 AccDes= 0.00D+00 IRadAn=         5 IDoV= 1 UseB2=F ITyADJ=14
 ICtDFT=  3500011 ScaDFX=  1.000000  1.000000  1.000000  1.000000
 FoFCou: FMM=F IPFlag=           0 FMFlag=      100000 FMFlg1=           0
         NFxFlg=           0 DoJE=T BraDBF=F KetDBF=T FulRan=T
         wScrn=  0.000000 ICntrl=       500 IOpCl=  0 I1Cent=   200000004 NGrid=           0
         NMat0=    1 NMatS0=      1 NMatT0=    0 NMatD0=    1 NMtDS0=    0 NMtDT0=    0
 Petite list used in FoFCou.
 Initial guess orbital symmetries:
 Alpha Orbitals:
       Occupied  (SG) (SG) (SG) (PI) (PI)
       Virtual   (SG) (SG) (PI) (PI) (SG) (SG) (PI) (PI) (DLTA)
                 (DLTA) (SG) (PI) (PI) (SG) (SG)
 Beta  Orbitals:
       Occupied  (SG) (SG) (SG) (PI)
       Virtual   (PI) (SG) (SG) (PI) (PI) (SG) (SG) (PI) (PI) (DLTA)
                 (DLTA) (SG) (PI) (PI) (SG) (SG)
 Initial guess <Sx>= 0.0000 <Sy>= 0.0000 <Sz>= 0.5000 <S**2>= 0.7500 S= 0.5000
 Keep J ints in memory in symmetry-blocked form, NReq=886690.
 Requested convergence on RMS density matrix=1.00D-08 within 128 cycles.
 Requested convergence on MAX density matrix=1.00D-06.
 Requested convergence on             energy=1.00D-06.
 No special actions if energy rises.
 Integral accuracy reduced to 1.0D-05 until final iterations.
 Initial convergence to 1.0D-05 achieved.  Increase integral accuracy.
 SCF Done:  E(UPBE-PBE) =  -75.6184724545     A.U. after   10 cycles
            NFock= 10  Conv=0.49D-08     -V/T= 2.0034
 <Sx>= 0.0000 <Sy>= 0.0000 <Sz>= 0.5000 <S**2>= 0.7513 S= 0.5007
 <L.S>= 0.000000000000E+00
 Annihilation of the first spin contaminant:
 S**2 before annihilation     0.7513,   after     0.7500

 **********************************************************************

            Population analysis using the SCF Density.

 **********************************************************************

 Orbital symmetries:
 Alpha Orbitals:
       Occupied  (SG) (SG) (SG) (PI) (PI)
       Virtual   (SG) (SG) (PI) (PI) (SG) (SG) (PI) (PI) (?A) (?A)
                 (?A) (PI) (PI) (SG) (SG)
 Beta  Orbitals:
       Occupied  (SG) (SG) (SG) (PI)
       Virtual   (PI) (SG) (SG) (PI) (SG) (PI) (SG) (PI) (PI) (DLTA)
                 (DLTA) (SG) (PI) (PI) (SG) (SG)
 Unable to determine electronic state:  partially filled degenerate orbitals.
 Alpha  occ. eigenvalues --  -18.81980  -0.95255  -0.41697  -0.34501  -0.26814
 Alpha virt. eigenvalues --    0.08873   0.75472   0.76774   0.81793   0.83498
 Alpha virt. eigenvalues --    1.05349   1.46949   1.51066   1.67738   1.67800
 Alpha virt. eigenvalues --    2.45801   2.66851   2.69711   3.32401   3.63807
  Beta  occ. eigenvalues --  -18.79730  -0.89764  -0.39080  -0.24389
  Beta virt. eigenvalues --   -0.21437   0.09758   0.77171   0.83451   0.85014
  Beta virt. eigenvalues --    0.85951   1.08052   1.51656   1.51986   1.74204
  Beta virt. eigenvalues --    1.75643   2.48429   2.69913   2.70281   3.37410
  Beta virt. eigenvalues --    3.64492
          Condensed to atoms (all electrons):
               1          2
     1  O    8.032027   0.276139
     2  H    0.276139   0.415695
          Atomic-Atomic Spin Densities.
               1          2
     1  O    1.015844   0.003892
     2  H    0.003892  -0.023627
 Mulliken charges and spin densities:
               1          2
     1  O   -0.308166   1.019736
     2  H    0.308166  -0.019736
 Sum of Mulliken charges =  -0.00000   1.00000
 Mulliken charges and spin densities with hydrogens summed into heavy atoms:
               1          2
     1  O   -0.000000   1.000000
 Electronic spatial extent (au):  <R**2>=             14.2480
 Charge=             -0.0000 electrons
 Dipole moment (field-independent basis, Debye):
    X=             -0.0000    Y=              0.0000    Z=             -1.6537  Tot=              1.6537
 Quadrupole moment (field-independent basis, Debye-Ang):
   XX=             -5.1505   YY=             -6.2731   ZZ=             -4.6769
   XY=              0.0000   XZ=              0.0000   YZ=             -0.0000
 Traceless Quadrupole moment (field-independent basis, Debye-Ang):
   XX=              0.2164   YY=             -0.9063   ZZ=              0.6899
   XY=              0.0000   XZ=              0.0000   YZ=             -0.0000
 Octapole moment (field-independent basis, Debye-Ang**2):
  XXX=             -0.0000  YYY=              0.0000  ZZZ=             -1.5490  XYY=             -0.0000
  XXY=              0.0000  XXZ=             -0.2411  XZZ=             -0.0000  YZZ=              0.0000
  YYZ=             -0.3212  XYZ=              0.0000
 Hexadecapole moment (field-independent basis, Debye-Ang**3):
 XXXX=             -3.1895 YYYY=             -4.4373 ZZZZ=             -4.6865 XXXY=              0.0000
 XXXZ=             -0.0000 YYYX=              0.0000 YYYZ=              0.0000 ZZZX=             -0.0000
 ZZZY=              0.0000 XXYY=             -1.2711 XXZZ=             -1.4385 YYZZ=             -1.6576
 XXYZ=              0.0000 YYXZ=             -0.0000 ZZXY=              0.0000
 N-N= 4.997630319477D+00 E-N=-1.891204104877D+02  KE= 7.536303083772D+01
 Symmetry A1   KE= 6.811895775159D+01
 Symmetry A2   KE= 7.687852426186D-35
 Symmetry B1   KE= 2.500285708569D+00
 Symmetry B2   KE= 4.743787377559D+00
 Symmetry A1   SP= 2.606422022655D-16
 Symmetry A2   SP= 9.017253582323D-36
 Symmetry B1   SP= 1.000000000000D+00
 Symmetry B2   SP=-7.644167417109D-16
                          Isotropic Fermi Contact Couplings
        Atom                 a.u.       MegaHertz       Gauss      10(-4) cm-1
     1  O(17)              0.07305     -44.28014     -15.80025     -14.77026
     2  H(1)              -0.01347     -60.19517     -21.47914     -20.07895
 --------------------------------------------------------
       Center         ----  Spin Dipole Couplings  ----
                      3XX-RR        3YY-RR        3ZZ-RR
 --------------------------------------------------------
     1   Atom        3.597207     -1.807408     -1.789798
     2   Atom       -0.022715     -0.180532      0.203247
 --------------------------------------------------------
                        XY            XZ            YZ
 --------------------------------------------------------
     1   Atom       -0.000000     -0.000000      0.000000
     2   Atom        0.000000     -0.000000     -0.000000
 --------------------------------------------------------


 ---------------------------------------------------------------------------------
              Anisotropic Spin Dipole Couplings in Principal Axis System
 ---------------------------------------------------------------------------------

       Atom             a.u.   MegaHertz   Gauss  10(-4) cm-1        Axes

              Baa    -1.8074   130.783    46.667    43.624 -0.0000  1.0000  0.0000
     1 O(17)  Bbb    -1.7898   129.509    46.212    43.199  0.0000  0.0000  1.0000
              Bcc     3.5972  -260.291   -92.878   -86.824  1.0000  0.0000  0.0000
 
              Baa    -0.1805   -96.324   -34.371   -32.130  0.0000  1.0000 -0.0000
     2 H(1)   Bbb    -0.0227   -12.120    -4.325    -4.043  1.0000 -0.0000 -0.0000
              Bcc     0.2032   108.443    38.695    36.173  0.0000  0.0000  1.0000
 

 ---------------------------------------------------------------------------------

 Calling FoFJK, ICntrl=      2527 FMM=F ISym2X=1 I1Cent= 0 IOpClX= 0 NMat=1 NMatS=1 NMatT=0.
 ***** Axes restored to original set *****
 -------------------------------------------------------------------
 Center     Atomic                   Forces (Hartrees/Bohr)
 Number     Number              X              Y              Z
 -------------------------------------------------------------------
      1        8           0.207932054    0.002945909   -0.000000000
      2        1          -0.207932054   -0.002945909    0.000000000
 -------------------------------------------------------------------
 Cartesian Forces:  Max     0.207932054 RMS     0.120061675

 GradGradGradGradGradGradGradGradGradGradGradGradGradGradGradGradGradGrad
 Berny optimization.
 FormGI is forming the generalized inverse of G from B-inverse, IUseBI=4.
 Internal  Forces:  Max     0.207952921 RMS     0.207952921
 Search for a local minimum.
 Step number   1 out of a maximum of   20
 All quantities printed in internal units (Hartrees-Bohrs-Radians)
 Mixed Optimization -- RFO/linear search
 Second derivative matrix not updated -- first step.
 The second derivative matrix:
                          R1
           R1           0.89046
 ITU=  0
     Eigenvalues ---    0.89046
 RFO step:  Lambda=-4.61702966D-02 EMin= 8.90458240D-01
 Linear search not attempted -- first point.
 Iteration  1 RMS(Cart)=  0.14142136 RMS(Int)=  0.02202283
 Iteration  2 RMS(Cart)=  0.01557249 RMS(Int)=  0.00000000
 Iteration  3 RMS(Cart)=  0.00000000 RMS(Int)=  0.00000000
 ClnCor:  largest displacement from symmetrization is 2.29D-16 for atom     1.
 Variable       Old X    -DE/DX   Delta X   Delta X   Delta X     New X
                                 (Linear)    (Quad)   (Total)
    R1        1.60076   0.20795   0.00000   0.22202   0.22202   1.82278
         Item               Value     Threshold  Converged?
 Maximum Force            0.207953     0.000450     NO 
 RMS     Force            0.207953     0.000300     NO 
 Maximum Displacement     0.111000     0.001800     NO 
 RMS     Displacement     0.156994     0.001200     NO 
 Predicted change in Energy=-2.422311D-02
 GradGradGradGradGradGradGradGradGradGradGradGradGradGradGradGradGradGrad

                          Input orientation:                          
 ---------------------------------------------------------------------
 Center     Atomic      Atomic             Coordinates (Angstroms)
 Number     Number       Type             X           Y           Z
 ---------------------------------------------------------------------
      1          8           0       -0.223261    0.618832   -0.000000
      2          1           0       -1.187739    0.605168    0.000000
 ---------------------------------------------------------------------
 Stoichiometry    HO(2)
 Framework group  C*V[C*(HO)]
 Deg. of freedom     1
 Full point group                 C*V     NOp   4
 Largest Abelian subgroup         C2V     NOp   4
 Largest concise Abelian subgroup C1      NOp   1
                         Standard orientation:                         
 ---------------------------------------------------------------------
 Center     Atomic      Atomic             Coordinates (Angstroms)
 Number     Number       Type             X           Y           Z
 ---------------------------------------------------------------------
      1          8           0        0.000000   -0.000000    0.107175
      2          1           0       -0.000000    0.000000   -0.857399
 ---------------------------------------------------------------------
 Rotational constants (GHZ):           0.0000000         572.9247050         572.9247050
 Standard basis: 6-31G(d,p) (6D, 7F)
 There are    11 symmetry adapted cartesian basis functions of A1  symmetry.
 There are     1 symmetry adapted cartesian basis functions of A2  symmetry.
 There are     4 symmetry adapted cartesian basis functions of B1  symmetry.
 There are     4 symmetry adapted cartesian basis functions of B2  symmetry.
 There are    11 symmetry adapted basis functions of A1  symmetry.
 There are     1 symmetry adapted basis functions of A2  symmetry.
 There are     4 symmetry adapted basis functions of B1  symmetry.
 There are     4 symmetry adapted basis functions of B2  symmetry.
    20 basis functions,    35 primitive gaussians,    20 cartesian basis functions
     5 alpha electrons        4 beta electrons
       nuclear repulsion energy         4.3888968828 Hartrees.
 NAtoms=    2 NActive=    2 NUniq=    2 SFac= 1.00D+00 NAtFMM=   60 NAOKFM=F Big=F
 Integral buffers will be    131072 words long.
 Raffenetti 2 integral format.
 Two-electron integral symmetry is turned on.
 One-electron integrals computed using PRISM.
 NBasis=    20 RedAO= T EigKep=  3.00D-02  NBF=    11     1     4     4
 NBsUse=    20 1.00D-06 EigRej= -1.00D+00 NBFU=    11     1     4     4
 Initial guess from the checkpoint file:  "/gpfs/home/gdb20/code/input_macros/temp/oh_radical_pbepbe_6-311++Gdp/oh_radical_pbepbe_6-311++Gdp.chk"
 B after Tr=     0.000000   -0.000000    0.000000
         Rot=    1.000000    0.000000   -0.000000    0.000000 Ang=   0.00 deg.
 Initial guess orbital symmetries:
 Alpha Orbitals:
       Occupied  (SG) (SG) (SG) (PI) (PI)
       Virtual   (SG) (SG) (PI) (PI) (SG) (SG) (PI) (PI) (DLTA)
                 (DLTA) (SG) (PI) (PI) (SG) (SG)
 Beta  Orbitals:
       Occupied  (SG) (SG) (SG) (PI)
       Virtual   (PI) (SG) (SG) (PI) (SG) (PI) (SG) (PI) (PI) (DLTA)
                 (DLTA) (SG) (PI) (PI) (SG) (SG)
 Initial guess <Sx>= 0.0000 <Sy>= 0.0000 <Sz>= 0.5000 <S**2>= 0.7515 S= 0.5007
 ExpMin= 1.61D-01 ExpMax= 5.48D+03 ExpMxC= 8.25D+02 IAcc=3 IRadAn=         5 AccDes= 0.00D+00
 Harris functional with IExCor= 1009 and IRadAn=       5 diagonalized for initial guess.
 HarFok:  IExCor= 1009 AccDes= 0.00D+00 IRadAn=         5 IDoV= 1 UseB2=F ITyADJ=14
 ICtDFT=  3500011 ScaDFX=  1.000000  1.000000  1.000000  1.000000
 FoFCou: FMM=F IPFlag=           0 FMFlag=      100000 FMFlg1=           0
         NFxFlg=           0 DoJE=T BraDBF=F KetDBF=T FulRan=T
         wScrn=  0.000000 ICntrl=       500 IOpCl=  0 I1Cent=   200000004 NGrid=           0
         NMat0=    1 NMatS0=      1 NMatT0=    0 NMatD0=    1 NMtDS0=    0 NMtDT0=    0
 Petite list used in FoFCou.
 Keep J ints in memory in symmetry-blocked form, NReq=886690.
 Requested convergence on RMS density matrix=1.00D-08 within 128 cycles.
 Requested convergence on MAX density matrix=1.00D-06.
 Requested convergence on             energy=1.00D-06.
 No special actions if energy rises.
 Integral accuracy reduced to 1.0D-05 until final iterations.
 Initial convergence to 1.0D-05 achieved.  Increase integral accuracy.
 SCF Done:  E(UPBE-PBE) =  -75.6413392895     A.U. after   11 cycles
            NFock= 11  Conv=0.47D-08     -V/T= 2.0072
 <Sx>= 0.0000 <Sy>= 0.0000 <Sz>= 0.5000 <S**2>= 0.7516 S= 0.5008
 <L.S>= 0.000000000000E+00
 Annihilation of the first spin contaminant:
 S**2 before annihilation     0.7516,   after     0.7500
 Calling FoFJK, ICntrl=      2527 FMM=F ISym2X=1 I1Cent= 0 IOpClX= 0 NMat=1 NMatS=1 NMatT=0.
 ***** Axes restored to original set *****
 -------------------------------------------------------------------
 Center     Atomic                   Forces (Hartrees/Bohr)
 Number     Number              X              Y              Z
 -------------------------------------------------------------------
      1        8           0.022351911    0.000316674   -0.000000000
      2        1          -0.022351911   -0.000316674    0.000000000
 -------------------------------------------------------------------
 Cartesian Forces:  Max     0.022351911 RMS     0.012906177

 GradGradGradGradGradGradGradGradGradGradGradGradGradGradGradGradGradGrad
 Berny optimization.
 Using GEDIIS/GDIIS optimizer.
 Internal  Forces:  Max     0.022354154 RMS     0.022354154
 Search for a local minimum.
 Step number   2 out of a maximum of   20
 All quantities printed in internal units (Hartrees-Bohrs-Radians)
 Mixed Optimization -- RFO/linear search
 Update second derivatives using D2CorX and points    1    2
 DE= -2.29D-02 DEPred=-2.42D-02 R= 9.44D-01
 TightC=F SS=  1.41D+00  RLast= 2.22D-01 DXNew= 5.0454D-01 6.6607D-01
 Trust test= 9.44D-01 RLast= 2.22D-01 DXMaxT set to 5.05D-01
 The second derivative matrix:
                          R1
           R1           0.83594
 ITU=  1  0
 Use linear search instead of GDIIS.
     Eigenvalues ---    0.83594
 RFO step:  Lambda= 0.00000000D+00 EMin= 8.35944504D-01
 Quartic linear search produced a step of  0.21181.
 Iteration  1 RMS(Cart)=  0.03325294 RMS(Int)=  0.00000000
 Iteration  2 RMS(Cart)=  0.00000000 RMS(Int)=  0.00000000
 ClnCor:  largest displacement from symmetrization is 4.44D-16 for atom     2.
 Variable       Old X    -DE/DX   Delta X   Delta X   Delta X     New X
                                 (Linear)    (Quad)   (Total)
    R1        1.82278   0.02235   0.04703   0.00000   0.04703   1.86981
         Item               Value     Threshold  Converged?
 Maximum Force            0.022354     0.000450     NO 
 RMS     Force            0.022354     0.000300     NO 
 Maximum Displacement     0.023511     0.001800     NO 
 RMS     Displacement     0.033253     0.001200     NO 
 Predicted change in Energy=-1.268911D-04
 GradGradGradGradGradGradGradGradGradGradGradGradGradGradGradGradGradGrad

                          Input orientation:                          
 ---------------------------------------------------------------------
 Center     Atomic      Atomic             Coordinates (Angstroms)
 Number     Number       Type             X           Y           Z
 ---------------------------------------------------------------------
      1          8           0       -0.210820    0.619008   -0.000000
      2          1           0       -1.200180    0.604992    0.000000
 ---------------------------------------------------------------------
 Stoichiometry    HO(2)
 Framework group  C*V[C*(HO)]
 Deg. of freedom     1
 Full point group                 C*V     NOp   4
 Largest Abelian subgroup         C2V     NOp   4
 Largest concise Abelian subgroup C1      NOp   1
                         Standard orientation:                         
 ---------------------------------------------------------------------
 Center     Atomic      Atomic             Coordinates (Angstroms)
 Number     Number       Type             X           Y           Z
 ---------------------------------------------------------------------
      1          8           0        0.000000    0.000000    0.109940
      2          1           0       -0.000000   -0.000000   -0.879520
 ---------------------------------------------------------------------
 Rotational constants (GHZ):           0.0000000         544.4683337         544.4683337
 Standard basis: 6-31G(d,p) (6D, 7F)
 There are    11 symmetry adapted cartesian basis functions of A1  symmetry.
 There are     1 symmetry adapted cartesian basis functions of A2  symmetry.
 There are     4 symmetry adapted cartesian basis functions of B1  symmetry.
 There are     4 symmetry adapted cartesian basis functions of B2  symmetry.
 There are    11 symmetry adapted basis functions of A1  symmetry.
 There are     1 symmetry adapted basis functions of A2  symmetry.
 There are     4 symmetry adapted basis functions of B1  symmetry.
 There are     4 symmetry adapted basis functions of B2  symmetry.
    20 basis functions,    35 primitive gaussians,    20 cartesian basis functions
     5 alpha electrons        4 beta electrons
       nuclear repulsion energy         4.2785135864 Hartrees.
 NAtoms=    2 NActive=    2 NUniq=    2 SFac= 1.00D+00 NAtFMM=   60 NAOKFM=F Big=F
 Integral buffers will be    131072 words long.
 Raffenetti 2 integral format.
 Two-electron integral symmetry is turned on.
 One-electron integrals computed using PRISM.
 NBasis=    20 RedAO= T EigKep=  3.11D-02  NBF=    11     1     4     4
 NBsUse=    20 1.00D-06 EigRej= -1.00D+00 NBFU=    11     1     4     4
 Initial guess from the checkpoint file:  "/gpfs/home/gdb20/code/input_macros/temp/oh_radical_pbepbe_6-311++Gdp/oh_radical_pbepbe_6-311++Gdp.chk"
 B after Tr=     0.000000   -0.000000    0.000000
         Rot=    1.000000    0.000000   -0.000000    0.000000 Ang=   0.00 deg.
 Initial guess orbital symmetries:
 Alpha Orbitals:
       Occupied  (SG) (SG) (SG) (PI) (PI)
       Virtual   (SG) (SG) (PI) (SG) (PI) (SG) (PI) (PI) (?A) (?A)
                 (?A) (PI) (PI) (SG) (SG)
 Beta  Orbitals:
       Occupied  (SG) (SG) (SG) (PI)
       Virtual   (PI) (SG) (SG) (SG) (PI) (PI) (SG) (PI) (PI) (DLTA)
                 (DLTA) (SG) (PI) (PI) (SG) (SG)
 Initial guess <Sx>= 0.0000 <Sy>= 0.0000 <Sz>= 0.5000 <S**2>= 0.7516 S= 0.5008
 ExpMin= 1.61D-01 ExpMax= 5.48D+03 ExpMxC= 8.25D+02 IAcc=3 IRadAn=         5 AccDes= 0.00D+00
 Harris functional with IExCor= 1009 and IRadAn=       5 diagonalized for initial guess.
 HarFok:  IExCor= 1009 AccDes= 0.00D+00 IRadAn=         5 IDoV= 1 UseB2=F ITyADJ=14
 ICtDFT=  3500011 ScaDFX=  1.000000  1.000000  1.000000  1.000000
 FoFCou: FMM=F IPFlag=           0 FMFlag=      100000 FMFlg1=           0
         NFxFlg=           0 DoJE=T BraDBF=F KetDBF=T FulRan=T
         wScrn=  0.000000 ICntrl=       500 IOpCl=  0 I1Cent=   200000004 NGrid=           0
         NMat0=    1 NMatS0=      1 NMatT0=    0 NMatD0=    1 NMtDS0=    0 NMtDT0=    0
 Petite list used in FoFCou.
 Keep J ints in memory in symmetry-blocked form, NReq=886690.
 Requested convergence on RMS density matrix=1.00D-08 within 128 cycles.
 Requested convergence on MAX density matrix=1.00D-06.
 Requested convergence on             energy=1.00D-06.
 No special actions if energy rises.
 Integral accuracy reduced to 1.0D-05 until final iterations.
 Initial convergence to 1.0D-05 achieved.  Increase integral accuracy.
 SCF Done:  E(UPBE-PBE) =  -75.6418201149     A.U. after   10 cycles
            NFock= 10  Conv=0.26D-08     -V/T= 2.0077
 <Sx>= 0.0000 <Sy>= 0.0000 <Sz>= 0.5000 <S**2>= 0.7517 S= 0.5008
 <L.S>= 0.000000000000E+00
 Annihilation of the first spin contaminant:
 S**2 before annihilation     0.7517,   after     0.7500
 Calling FoFJK, ICntrl=      2527 FMM=F ISym2X=1 I1Cent= 0 IOpClX= 0 NMat=1 NMatS=1 NMatT=0.
 ***** Axes restored to original set *****
 -------------------------------------------------------------------
 Center     Atomic                   Forces (Hartrees/Bohr)
 Number     Number              X              Y              Z
 -------------------------------------------------------------------
      1        8          -0.001228384   -0.000017403    0.000000000
      2        1           0.001228384    0.000017403   -0.000000000
 -------------------------------------------------------------------
 Cartesian Forces:  Max     0.001228384 RMS     0.000709279

 GradGradGradGradGradGradGradGradGradGradGradGradGradGradGradGradGradGrad
 Berny optimization.
 Using GEDIIS/GDIIS optimizer.
 Internal  Forces:  Max     0.001228507 RMS     0.001228507
 Search for a local minimum.
 Step number   3 out of a maximum of   20
 All quantities printed in internal units (Hartrees-Bohrs-Radians)
 Mixed Optimization -- RFO/linear search
 Update second derivatives using D2CorX and points    2    3
 DE= -4.81D-04 DEPred=-1.27D-04 R= 3.79D+00
 TightC=F SS=  1.41D+00  RLast= 4.70D-02 DXNew= 8.4853D-01 1.4108D-01
 Trust test= 3.79D+00 RLast= 4.70D-02 DXMaxT set to 5.05D-01
 The second derivative matrix:
                          R1
           R1           0.50147
 ITU=  1  1
 Use linear search instead of GDIIS.
     Eigenvalues ---    0.50147
 RFO step:  Lambda= 0.00000000D+00 EMin= 5.01473229D-01
 Quartic linear search produced a step of -0.05663.
 Iteration  1 RMS(Cart)=  0.00188324 RMS(Int)=  0.00000000
 Iteration  2 RMS(Cart)=  0.00000000 RMS(Int)=  0.00000000
 ClnCor:  largest displacement from symmetrization is 5.55D-17 for atom     1.
 Variable       Old X    -DE/DX   Delta X   Delta X   Delta X     New X
                                 (Linear)    (Quad)   (Total)
    R1        1.86981  -0.00123  -0.00266   0.00000  -0.00266   1.86714
         Item               Value     Threshold  Converged?
 Maximum Force            0.001229     0.000450     NO 
 RMS     Force            0.001229     0.000300     NO 
 Maximum Displacement     0.001332     0.001800     YES
 RMS     Displacement     0.001883     0.001200     NO 
 Predicted change in Energy=-1.493365D-06
 GradGradGradGradGradGradGradGradGradGradGradGradGradGradGradGradGradGrad

                          Input orientation:                          
 ---------------------------------------------------------------------
 Center     Atomic      Atomic             Coordinates (Angstroms)
 Number     Number       Type             X           Y           Z
 ---------------------------------------------------------------------
      1          8           0       -0.211524    0.618998   -0.000000
      2          1           0       -1.199476    0.605002    0.000000
 ---------------------------------------------------------------------
 Stoichiometry    HO(2)
 Framework group  C*V[C*(HO)]
 Deg. of freedom     1
 Full point group                 C*V     NOp   4
 Largest Abelian subgroup         C2V     NOp   4
 Largest concise Abelian subgroup C1      NOp   1
                         Standard orientation:                         
 ---------------------------------------------------------------------
 Center     Atomic      Atomic             Coordinates (Angstroms)
 Number     Number       Type             X           Y           Z
 ---------------------------------------------------------------------
      1          8           0       -0.000000   -0.000000    0.109783
      2          1           0        0.000000    0.000000   -0.878267
 ---------------------------------------------------------------------
 Rotational constants (GHZ):           0.0000000         546.0227066         546.0227066
 Standard basis: 6-31G(d,p) (6D, 7F)
 There are    11 symmetry adapted cartesian basis functions of A1  symmetry.
 There are     1 symmetry adapted cartesian basis functions of A2  symmetry.
 There are     4 symmetry adapted cartesian basis functions of B1  symmetry.
 There are     4 symmetry adapted cartesian basis functions of B2  symmetry.
 There are    11 symmetry adapted basis functions of A1  symmetry.
 There are     1 symmetry adapted basis functions of A2  symmetry.
 There are     4 symmetry adapted basis functions of B1  symmetry.
 There are     4 symmetry adapted basis functions of B2  symmetry.
    20 basis functions,    35 primitive gaussians,    20 cartesian basis functions
     5 alpha electrons        4 beta electrons
       nuclear repulsion energy         4.2846164813 Hartrees.
 NAtoms=    2 NActive=    2 NUniq=    2 SFac= 1.00D+00 NAtFMM=   60 NAOKFM=F Big=F
 Integral buffers will be    131072 words long.
 Raffenetti 2 integral format.
 Two-electron integral symmetry is turned on.
 One-electron integrals computed using PRISM.
 NBasis=    20 RedAO= T EigKep=  3.11D-02  NBF=    11     1     4     4
 NBsUse=    20 1.00D-06 EigRej= -1.00D+00 NBFU=    11     1     4     4
 Initial guess from the checkpoint file:  "/gpfs/home/gdb20/code/input_macros/temp/oh_radical_pbepbe_6-311++Gdp/oh_radical_pbepbe_6-311++Gdp.chk"
 B after Tr=    -0.000000    0.000000   -0.000000
         Rot=    1.000000   -0.000000   -0.000000    0.000000 Ang=   0.00 deg.
 Initial guess orbital symmetries:
 Alpha Orbitals:
       Occupied  (SG) (SG) (SG) (PI) (PI)
       Virtual   (SG) (SG) (PI) (SG) (PI) (SG) (PI) (PI) (?A) (?A)
                 (?A) (PI) (PI) (SG) (SG)
 Beta  Orbitals:
       Occupied  (SG) (SG) (SG) (PI)
       Virtual   (PI) (SG) (SG) (SG) (PI) (PI) (SG) (PI) (PI) (DLTA)
                 (DLTA) (SG) (PI) (PI) (SG) (SG)
 Initial guess <Sx>= 0.0000 <Sy>= 0.0000 <Sz>= 0.5000 <S**2>= 0.7517 S= 0.5008
 Keep J ints in memory in symmetry-blocked form, NReq=886690.
 Requested convergence on RMS density matrix=1.00D-08 within 128 cycles.
 Requested convergence on MAX density matrix=1.00D-06.
 Requested convergence on             energy=1.00D-06.
 No special actions if energy rises.
 SCF Done:  E(UPBE-PBE) =  -75.6418217520     A.U. after    7 cycles
            NFock=  7  Conv=0.13D-08     -V/T= 2.0077
 <Sx>= 0.0000 <Sy>= 0.0000 <Sz>= 0.5000 <S**2>= 0.7517 S= 0.5008
 <L.S>= 0.000000000000E+00
 Annihilation of the first spin contaminant:
 S**2 before annihilation     0.7517,   after     0.7500
 Calling FoFJK, ICntrl=      2527 FMM=F ISym2X=1 I1Cent= 0 IOpClX= 0 NMat=1 NMatS=1 NMatT=0.
 ***** Axes restored to original set *****
 -------------------------------------------------------------------
 Center     Atomic                   Forces (Hartrees/Bohr)
 Number     Number              X              Y              Z
 -------------------------------------------------------------------
      1        8           0.000001189    0.000000017   -0.000000000
      2        1          -0.000001189   -0.000000017    0.000000000
 -------------------------------------------------------------------
 Cartesian Forces:  Max     0.000001189 RMS     0.000000687

 GradGradGradGradGradGradGradGradGradGradGradGradGradGradGradGradGradGrad
 Berny optimization.
 Using GEDIIS/GDIIS optimizer.
 Internal  Forces:  Max     0.000001189 RMS     0.000001189
 Search for a local minimum.
 Step number   4 out of a maximum of   20
 All quantities printed in internal units (Hartrees-Bohrs-Radians)
 Mixed Optimization -- En-DIIS/RFO-DIIS
 Update second derivatives using D2CorX and points    3    4
 DE= -1.64D-06 DEPred=-1.49D-06 R= 1.10D+00
 TightC=F SS=  1.41D+00  RLast= 2.66D-03 DXNew= 8.4853D-01 7.9899D-03
 Trust test= 1.10D+00 RLast= 2.66D-03 DXMaxT set to 5.05D-01
 The second derivative matrix:
                          R1
           R1           0.46172
 ITU=  1  1
 Use linear search instead of GDIIS.
     Eigenvalues ---    0.46172
 RFO step:  Lambda= 0.00000000D+00 EMin= 4.61718049D-01
 Quartic linear search produced a step of -0.00096.
 Iteration  1 RMS(Cart)=  0.00000181 RMS(Int)=  0.00000000
 Iteration  2 RMS(Cart)=  0.00000000 RMS(Int)=  0.00000000
 ClnCor:  largest displacement from symmetrization is 4.97D-16 for atom     2.
 Variable       Old X    -DE/DX   Delta X   Delta X   Delta X     New X
                                 (Linear)    (Quad)   (Total)
    R1        1.86714   0.00000   0.00000   0.00000   0.00000   1.86715
         Item               Value     Threshold  Converged?
 Maximum Force            0.000001     0.000450     YES
 RMS     Force            0.000001     0.000300     YES
 Maximum Displacement     0.000001     0.001800     YES
 RMS     Displacement     0.000002     0.001200     YES
 Predicted change in Energy=-1.532037D-12
 Optimization completed.
    -- Stationary point found.
                           ----------------------------
                           !   Optimized Parameters   !
                           ! (Angstroms and Degrees)  !
 --------------------------                            --------------------------
 ! Name  Definition              Value          Derivative Info.                !
 --------------------------------------------------------------------------------
 ! R1    R(1,2)                  0.9881         -DE/DX =    0.0                 !
 --------------------------------------------------------------------------------
 GradGradGradGradGradGradGradGradGradGradGradGradGradGradGradGradGradGrad

                          Input orientation:                          
 ---------------------------------------------------------------------
 Center     Atomic      Atomic             Coordinates (Angstroms)
 Number     Number       Type             X           Y           Z
 ---------------------------------------------------------------------
      1          8           0       -0.211524    0.618998   -0.000000
      2          1           0       -1.199476    0.605002    0.000000
 ---------------------------------------------------------------------
 Stoichiometry    HO(2)
 Framework group  C*V[C*(HO)]
 Deg. of freedom     1
 Full point group                 C*V     NOp   4
 Largest Abelian subgroup         C2V     NOp   4
 Largest concise Abelian subgroup C1      NOp   1
                         Standard orientation:                         
 ---------------------------------------------------------------------
 Center     Atomic      Atomic             Coordinates (Angstroms)
 Number     Number       Type             X           Y           Z
 ---------------------------------------------------------------------
      1          8           0       -0.000000   -0.000000    0.109783
      2          1           0        0.000000    0.000000   -0.878267
 ---------------------------------------------------------------------
 Rotational constants (GHZ):           0.0000000         546.0227066         546.0227066

 **********************************************************************

            Population analysis using the SCF Density.

 **********************************************************************

 Orbital symmetries:
 Alpha Orbitals:
       Occupied  (SG) (SG) (SG) (PI) (PI)
       Virtual   (SG) (SG) (PI) (SG) (PI) (SG) (PI) (PI) (?A) (?A)
                 (?A) (PI) (PI) (SG) (SG)
 Beta  Orbitals:
       Occupied  (SG) (SG) (SG) (PI)
       Virtual   (PI) (SG) (SG) (SG) (PI) (PI) (SG) (PI) (PI) (DLTA)
                 (DLTA) (SG) (PI) (PI) (SG) (SG)
 Unable to determine electronic state:  partially filled degenerate orbitals.
 Alpha  occ. eigenvalues --  -18.83115  -0.90809  -0.40358  -0.33831  -0.26135
 Alpha virt. eigenvalues --    0.04698   0.68223   0.76871   0.79862   0.81901
 Alpha virt. eigenvalues --    1.02129   1.45416   1.49230   1.68413   1.68421
 Alpha virt. eigenvalues --    2.21189   2.50499   2.53139   3.20429   3.38589
  Beta  occ. eigenvalues --  -18.80843  -0.85061  -0.38013  -0.23714
  Beta virt. eigenvalues --   -0.20732   0.05618   0.69092   0.81856   0.83549
  Beta virt. eigenvalues --    0.86082   1.04747   1.49695   1.50027   1.74867
  Beta virt. eigenvalues --    1.76318   2.23479   2.53199   2.53533   3.23607
  Beta virt. eigenvalues --    3.41304
          Condensed to atoms (all electrons):
               1          2
     1  O    8.088192   0.229369
     2  H    0.229369   0.453070
          Atomic-Atomic Spin Densities.
               1          2
     1  O    1.023773   0.003996
     2  H    0.003996  -0.031765
 Mulliken charges and spin densities:
               1          2
     1  O   -0.317561   1.027769
     2  H    0.317561  -0.027769
 Sum of Mulliken charges =  -0.00000   1.00000
 Mulliken charges and spin densities with hydrogens summed into heavy atoms:
               1          2
     1  O   -0.000000   1.000000
 Electronic spatial extent (au):  <R**2>=             15.1520
 Charge=             -0.0000 electrons
 Dipole moment (field-independent basis, Debye):
    X=              0.0000    Y=             -0.0000    Z=             -1.6895  Tot=              1.6895
 Quadrupole moment (field-independent basis, Debye-Ang):
   XX=             -5.2947   YY=             -6.4217   ZZ=             -4.4954
   XY=              0.0000   XZ=              0.0000   YZ=             -0.0000
 Traceless Quadrupole moment (field-independent basis, Debye-Ang):
   XX=              0.1092   YY=             -1.0178   ZZ=              0.9086
   XY=              0.0000   XZ=              0.0000   YZ=             -0.0000
 Octapole moment (field-independent basis, Debye-Ang**2):
  XXX=              0.0000  YYY=             -0.0000  ZZZ=             -1.7287  XYY=              0.0000
  XXY=             -0.0000  XXZ=             -0.1354  XZZ=             -0.0000  YZZ=              0.0000
  YYZ=             -0.2370  XYZ=              0.0000
 Hexadecapole moment (field-independent basis, Debye-Ang**3):
 XXXX=             -3.3568 YYYY=             -4.6137 ZZZZ=             -5.3066 XXXY=              0.0000
 XXXZ=              0.0000 YYYX=              0.0000 YYYZ=             -0.0000 ZZZX=              0.0000
 ZZZY=             -0.0000 XXYY=             -1.3284 XXZZ=             -1.6694 YYZZ=             -1.8933
 XXYZ=             -0.0000 YYXZ=              0.0000 ZZXY=              0.0000
 N-N= 4.284616481285D+00 E-N=-1.876058873003D+02  KE= 7.506436521573D+01
 Symmetry A1   KE= 6.781220794505D+01
 Symmetry A2   KE= 9.415558275952D-35
 Symmetry B1   KE= 2.503605261757D+00
 Symmetry B2   KE= 4.748552008923D+00
 Symmetry A1   SP= 6.558772622234D-15
 Symmetry A2   SP= 8.650481472082D-36
 Symmetry B1   SP= 1.000000000000D+00
 Symmetry B2   SP= 5.321806363645D-16
                          Isotropic Fermi Contact Couplings
        Atom                 a.u.       MegaHertz       Gauss      10(-4) cm-1
     1  O(17)              0.06738     -40.84795     -14.57556     -13.62541
     2  H(1)              -0.01466     -65.53787     -23.38554     -21.86108
 --------------------------------------------------------
       Center         ----  Spin Dipole Couplings  ----
                      3XX-RR        3YY-RR        3ZZ-RR
 --------------------------------------------------------
     1   Atom        3.593825     -1.828166     -1.765659
     2   Atom       -0.037458     -0.126795      0.164253
 --------------------------------------------------------
                        XY            XZ            YZ
 --------------------------------------------------------
     1   Atom       -0.000000     -0.000000      0.000000
     2   Atom        0.000000     -0.000000     -0.000000
 --------------------------------------------------------


 ---------------------------------------------------------------------------------
              Anisotropic Spin Dipole Couplings in Principal Axis System
 ---------------------------------------------------------------------------------

       Atom             a.u.   MegaHertz   Gauss  10(-4) cm-1        Axes

              Baa    -1.8282   132.285    47.203    44.125  0.0000  1.0000  0.0000
     1 O(17)  Bbb    -1.7657   127.762    45.589    42.617  0.0000  0.0000  1.0000
              Bcc     3.5938  -260.047   -92.791   -86.742  1.0000 -0.0000  0.0000
 
              Baa    -0.1268   -67.652   -24.140   -22.566  0.0000  1.0000 -0.0000
     2 H(1)   Bbb    -0.0375   -19.986    -7.131    -6.666  1.0000  0.0000 -0.0000
              Bcc     0.1643    87.637    31.271    29.233  0.0000  0.0000  1.0000
 

 ---------------------------------------------------------------------------------

 Unable to Open any file for archive entry.
 1\1\GINC-HPC-I30-14\FOpt\UPBEPBE\6-31G(d,p)\H1O1(2)\GDB20\05-Oct-2024\
 0\\#upbepbe/6-31g(d,p) OPT FREQ\\created with so and so tool\\0,2\O,-0
 .2115242966,0.6189984751,0.\H,-1.1994757034,0.6050015249,0.\\Version=E
 M64L-G16RevC.01\HF=-75.6418218\S2=0.751652\S2-1=0.\S2A=0.750001\RMSD=1
 .310e-09\RMSF=6.867e-07\Dipole=-0.6646305,-0.0094163,0.\Quadrupole=0.6
 752048,-0.7562202,0.0810154,0.020284,-0.0001681,0.0118669\PG=C*V [C*(H
 1O1)]\\@
 The archive entry for this job was punched.


 WHEN ALL ELSE FAILS, TRY THE BOSS'S SUGGESTION.
 Job cpu time:       0 days  0 hours  0 minutes 11.9 seconds.
 Elapsed time:       0 days  0 hours  0 minutes 11.8 seconds.
 File lengths (MBytes):  RWF=    136 Int=      0 D2E=      0 Chk=     16 Scr=     16
 Normal termination of Gaussian 16 at Sat Oct  5 18:31:18 2024.
 Link1:  Proceeding to internal job step number  2.
 ----------------------------------------------------------------------
 #N Geom=AllCheck Guess=TCheck SCRF=Check GenChk UPBEPBE/6-31G(d,p) Fre
 q
 ----------------------------------------------------------------------
 1/10=4,29=7,30=1,38=1,40=1/1,3;
 2/12=2,40=1/2;
 3/5=1,6=6,7=101,11=2,14=-4,25=1,30=1,70=2,71=2,74=1009,116=2,140=1/1,2,3;
 4/5=101/1;
 5/5=2,38=6,98=1/2;
 8/6=4,10=90,11=11/1;
 11/6=1,8=1,9=11,15=111,16=1/1,2,10;
 10/6=1/2;
 6/7=2,8=2,9=2,10=2,28=1/1;
 7/8=1,10=1,25=1/1,2,3,16;
 1/10=4,30=1/3;
 99//99;
 Structure from the checkpoint file:  "/gpfs/home/gdb20/code/input_macros/temp/oh_radical_pbepbe_6-311++Gdp/oh_radical_pbepbe_6-311++Gdp.chk"
 ---------------------------
 created with so and so tool
 ---------------------------
 Charge =  0 Multiplicity = 2
 Redundant internal coordinates found in file.  (old form).
 O,0,-0.2115242966,0.6189984751,0.
 H,0,-1.1994757034,0.6050015249,0.
 Recover connectivity data from disk.

 GradGradGradGradGradGradGradGradGradGradGradGradGradGradGradGradGradGrad
 Berny optimization.
 Initialization pass.
                           ----------------------------
                           !    Initial Parameters    !
                           ! (Angstroms and Degrees)  !
 --------------------------                            --------------------------
 ! Name  Definition              Value          Derivative Info.                !
 --------------------------------------------------------------------------------
 ! R1    R(1,2)                  0.9881         calculate D2E/DX2 analytically  !
 --------------------------------------------------------------------------------
 Trust Radius=3.00D-01 FncErr=1.00D-07 GrdErr=1.00D-07 EigMax=2.50D+02 EigMin=1.00D-04
 Number of steps in this run=      2 maximum allowed number of steps=      2.
 GradGradGradGradGradGradGradGradGradGradGradGradGradGradGradGradGradGrad

                          Input orientation:                          
 ---------------------------------------------------------------------
 Center     Atomic      Atomic             Coordinates (Angstroms)
 Number     Number       Type             X           Y           Z
 ---------------------------------------------------------------------
      1          8           0       -0.211524    0.618998    0.000000
      2          1           0       -1.199476    0.605002   -0.000000
 ---------------------------------------------------------------------
 Stoichiometry    HO(2)
 Framework group  C*V[C*(HO)]
 Deg. of freedom     1
 Full point group                 C*V     NOp   4
 Largest Abelian subgroup         C2V     NOp   4
 Largest concise Abelian subgroup C1      NOp   1
                         Standard orientation:                         
 ---------------------------------------------------------------------
 Center     Atomic      Atomic             Coordinates (Angstroms)
 Number     Number       Type             X           Y           Z
 ---------------------------------------------------------------------
      1          8           0        0.000000   -0.000000    0.109783
      2          1           0        0.000000    0.000000   -0.878267
 ---------------------------------------------------------------------
 Rotational constants (GHZ):           0.0000000         546.0227066         546.0227066
 Standard basis: 6-31G(d,p) (6D, 7F)
 There are    11 symmetry adapted cartesian basis functions of A1  symmetry.
 There are     1 symmetry adapted cartesian basis functions of A2  symmetry.
 There are     4 symmetry adapted cartesian basis functions of B1  symmetry.
 There are     4 symmetry adapted cartesian basis functions of B2  symmetry.
 There are    11 symmetry adapted basis functions of A1  symmetry.
 There are     1 symmetry adapted basis functions of A2  symmetry.
 There are     4 symmetry adapted basis functions of B1  symmetry.
 There are     4 symmetry adapted basis functions of B2  symmetry.
    20 basis functions,    35 primitive gaussians,    20 cartesian basis functions
     5 alpha electrons        4 beta electrons
       nuclear repulsion energy         4.2846164813 Hartrees.
 NAtoms=    2 NActive=    2 NUniq=    2 SFac= 1.00D+00 NAtFMM=   60 NAOKFM=F Big=F
 Integral buffers will be    131072 words long.
 Raffenetti 2 integral format.
 Two-electron integral symmetry is turned on.
 One-electron integrals computed using PRISM.
 NBasis=    20 RedAO= T EigKep=  3.11D-02  NBF=    11     1     4     4
 NBsUse=    20 1.00D-06 EigRej= -1.00D+00 NBFU=    11     1     4     4
 Initial guess from the checkpoint file:  "/gpfs/home/gdb20/code/input_macros/temp/oh_radical_pbepbe_6-311++Gdp/oh_radical_pbepbe_6-311++Gdp.chk"
 B after Tr=    -0.000000    0.000000    0.000000
         Rot=    1.000000   -0.000000   -0.000000    0.000000 Ang=   0.00 deg.
 Initial guess orbital symmetries:
 Alpha Orbitals:
       Occupied  (SG) (SG) (SG) (PI) (PI)
       Virtual   (SG) (SG) (PI) (SG) (PI) (SG) (PI) (PI) (?A) (?A)
                 (?A) (PI) (PI) (SG) (SG)
 Beta  Orbitals:
       Occupied  (SG) (SG) (SG) (PI)
       Virtual   (PI) (SG) (SG) (SG) (PI) (PI) (SG) (PI) (PI) (DLTA)
                 (DLTA) (SG) (PI) (PI) (SG) (SG)
 Initial guess <Sx>= 0.0000 <Sy>= 0.0000 <Sz>= 0.5000 <S**2>= 0.7517 S= 0.5008
 Keep J ints in memory in symmetry-blocked form, NReq=886690.
 Requested convergence on RMS density matrix=1.00D-08 within 128 cycles.
 Requested convergence on MAX density matrix=1.00D-06.
 Requested convergence on             energy=1.00D-06.
 No special actions if energy rises.
 SCF Done:  E(UPBE-PBE) =  -75.6418217520     A.U. after    1 cycles
            NFock=  1  Conv=0.21D-09     -V/T= 2.0077
 <Sx>= 0.0000 <Sy>= 0.0000 <Sz>= 0.5000 <S**2>= 0.7517 S= 0.5008
 <L.S>= 0.000000000000E+00
 Annihilation of the first spin contaminant:
 S**2 before annihilation     0.7517,   after     0.7500
 DoSCS=F DFT=T ScalE2(SS,OS)=  1.000000  1.000000
 Range of M.O.s used for correlation:     1    20
 NBasis=    20 NAE=     5 NBE=     4 NFC=     0 NFV=     0
 NROrb=     20 NOA=     5 NOB=     4 NVA=    15 NVB=    16

 **** Warning!!: The smallest beta delta epsilon is  0.29824466D-01

 Symmetrizing basis deriv contribution to polar:
 IMax=3 JMax=2 DiffMx= 0.00D+00
 G2DrvN: will do     3 centers at a time, making    1 passes.
 Calling FoFCou, ICntrl=  3507 FMM=F I1Cent=   0 AccDes= 0.00D+00.
 End of G2Drv F.D. properties file   721 does not exist.
 End of G2Drv F.D. properties file   722 does not exist.
 End of G2Drv F.D. properties file   788 does not exist.
          IDoAtm=11
          Differentiating once with respect to electric field.
                with respect to dipole field.
          Differentiating once with respect to nuclear coordinates.
 Keep J ints in memory in symmetry-blocked form, NReq=885274.
          There are     9 degrees of freedom in the 1st order CPHF.  IDoFFX=6 NUNeed=     3.
      6 vectors produced by pass  0 Test12= 1.54D-15 1.11D-08 XBig12= 9.00D+00 2.06D+00.
 AX will form     6 AO Fock derivatives at one time.
      6 vectors produced by pass  1 Test12= 1.54D-15 1.11D-08 XBig12= 1.15D+00 4.43D-01.
      6 vectors produced by pass  2 Test12= 1.54D-15 1.11D-08 XBig12= 9.50D-03 3.11D-02.
      6 vectors produced by pass  3 Test12= 1.54D-15 1.11D-08 XBig12= 7.35D-05 4.11D-03.
      6 vectors produced by pass  4 Test12= 1.54D-15 1.11D-08 XBig12= 1.92D-07 1.71D-04.
      4 vectors produced by pass  5 Test12= 1.54D-15 1.11D-08 XBig12= 3.64D-10 7.72D-06.
      2 vectors produced by pass  6 Test12= 1.54D-15 1.11D-08 XBig12= 9.49D-13 4.12D-07.
      1 vectors produced by pass  7 Test12= 1.54D-15 1.11D-08 XBig12= 1.11D-15 1.43D-08.
 InvSVY:  IOpt=1 It=  1 EMax= 2.22D-16
 Solved reduced A of dimension    37 with     6 vectors.
 Isotropic polarizability for W=    0.000000        4.02 Bohr**3.
 End of Minotr F.D. properties file   721 does not exist.
 End of Minotr F.D. properties file   722 does not exist.
 End of Minotr F.D. properties file   788 does not exist.

 **********************************************************************

            Population analysis using the SCF Density.

 **********************************************************************

 Orbital symmetries:
 Alpha Orbitals:
       Occupied  (SG) (SG) (SG) (PI) (PI)
       Virtual   (SG) (SG) (PI) (SG) (PI) (SG) (PI) (PI) (?A) (?A)
                 (?A) (PI) (PI) (SG) (SG)
 Beta  Orbitals:
       Occupied  (SG) (SG) (SG) (PI)
       Virtual   (PI) (SG) (SG) (SG) (PI) (PI) (SG) (PI) (PI) (DLTA)
                 (DLTA) (SG) (PI) (PI) (SG) (SG)
 Unable to determine electronic state:  partially filled degenerate orbitals.
 Alpha  occ. eigenvalues --  -18.83115  -0.90809  -0.40358  -0.33831  -0.26135
 Alpha virt. eigenvalues --    0.04698   0.68223   0.76871   0.79862   0.81901
 Alpha virt. eigenvalues --    1.02129   1.45416   1.49230   1.68413   1.68421
 Alpha virt. eigenvalues --    2.21189   2.50499   2.53139   3.20429   3.38589
  Beta  occ. eigenvalues --  -18.80843  -0.85061  -0.38013  -0.23714
  Beta virt. eigenvalues --   -0.20732   0.05618   0.69092   0.81856   0.83549
  Beta virt. eigenvalues --    0.86082   1.04747   1.49695   1.50027   1.74867
  Beta virt. eigenvalues --    1.76318   2.23479   2.53199   2.53533   3.23607
  Beta virt. eigenvalues --    3.41304
          Condensed to atoms (all electrons):
               1          2
     1  O    8.088192   0.229369
     2  H    0.229369   0.453070
          Atomic-Atomic Spin Densities.
               1          2
     1  O    1.023773   0.003996
     2  H    0.003996  -0.031765
 Mulliken charges and spin densities:
               1          2
     1  O   -0.317561   1.027769
     2  H    0.317561  -0.027769
 Sum of Mulliken charges =  -0.00000   1.00000
 Mulliken charges and spin densities with hydrogens summed into heavy atoms:
               1          2
     1  O   -0.000000   1.000000
 APT charges:
               1
     1  O   -0.246222
     2  H    0.246222
 Sum of APT charges =  -0.00000
 APT charges with hydrogens summed into heavy atoms:
               1
     1  O   -0.000000
 Electronic spatial extent (au):  <R**2>=             15.1520
 Charge=             -0.0000 electrons
 Dipole moment (field-independent basis, Debye):
    X=             -0.0000    Y=              0.0000    Z=             -1.6895  Tot=              1.6895
 Quadrupole moment (field-independent basis, Debye-Ang):
   XX=             -5.2947   YY=             -6.4217   ZZ=             -4.4954
   XY=              0.0000   XZ=              0.0000   YZ=             -0.0000
 Traceless Quadrupole moment (field-independent basis, Debye-Ang):
   XX=              0.1092   YY=             -1.0178   ZZ=              0.9086
   XY=              0.0000   XZ=              0.0000   YZ=             -0.0000
 Octapole moment (field-independent basis, Debye-Ang**2):
  XXX=             -0.0000  YYY=              0.0000  ZZZ=             -1.7287  XYY=             -0.0000
  XXY=              0.0000  XXZ=             -0.1354  XZZ=             -0.0000  YZZ=              0.0000
  YYZ=             -0.2370  XYZ=              0.0000
 Hexadecapole moment (field-independent basis, Debye-Ang**3):
 XXXX=             -3.3568 YYYY=             -4.6137 ZZZZ=             -5.3066 XXXY=              0.0000
 XXXZ=             -0.0000 YYYX=              0.0000 YYYZ=              0.0000 ZZZX=             -0.0000
 ZZZY=              0.0000 XXYY=             -1.3284 XXZZ=             -1.6694 YYZZ=             -1.8933
 XXYZ=              0.0000 YYXZ=             -0.0000 ZZXY=              0.0000
 N-N= 4.284616481285D+00 E-N=-1.876058872611D+02  KE= 7.506436519799D+01
 Symmetry A1   KE= 6.781220793304D+01
 Symmetry A2   KE= 9.535729674690D-35
 Symmetry B1   KE= 2.503605260219D+00
 Symmetry B2   KE= 4.748552004735D+00
 Symmetry A1   SP=-1.450987767437D-15
 Symmetry A2   SP= 9.157324208517D-36
 Symmetry B1   SP= 1.000000000000D+00
 Symmetry B2   SP= 7.516773661842D-16
  Exact polarizability:       2.890      -0.000       2.571       0.000       0.000       6.596
 Approx polarizability:       3.936      -0.000       2.962       0.000      -0.000       9.630
                          Isotropic Fermi Contact Couplings
        Atom                 a.u.       MegaHertz       Gauss      10(-4) cm-1
     1  O(17)              0.06738     -40.84795     -14.57556     -13.62541
     2  H(1)              -0.01466     -65.53787     -23.38554     -21.86108
 --------------------------------------------------------
       Center         ----  Spin Dipole Couplings  ----
                      3XX-RR        3YY-RR        3ZZ-RR
 --------------------------------------------------------
     1   Atom        3.593825     -1.828166     -1.765659
     2   Atom       -0.037458     -0.126795      0.164253
 --------------------------------------------------------
                        XY            XZ            YZ
 --------------------------------------------------------
     1   Atom       -0.000000     -0.000000      0.000000
     2   Atom       -0.000000     -0.000000     -0.000000
 --------------------------------------------------------


 ---------------------------------------------------------------------------------
              Anisotropic Spin Dipole Couplings in Principal Axis System
 ---------------------------------------------------------------------------------

       Atom             a.u.   MegaHertz   Gauss  10(-4) cm-1        Axes

              Baa    -1.8282   132.285    47.203    44.125 -0.0000  1.0000  0.0000
     1 O(17)  Bbb    -1.7657   127.762    45.589    42.617  0.0000  0.0000  1.0000
              Bcc     3.5938  -260.047   -92.791   -86.742  1.0000  0.0000  0.0000
 
              Baa    -0.1268   -67.652   -24.140   -22.566  0.0000  1.0000 -0.0000
     2 H(1)   Bbb    -0.0375   -19.986    -7.131    -6.666  1.0000 -0.0000 -0.0000
              Bcc     0.1643    87.637    31.271    29.233  0.0000  0.0000  1.0000
 

 ---------------------------------------------------------------------------------

 Calling FoFJK, ICntrl=    100527 FMM=F ISym2X=1 I1Cent= 0 IOpClX= 0 NMat=1 NMatS=1 NMatT=0.
 Full mass-weighted force constant matrix:
 Low frequencies ---   -0.0015   -0.0012    0.0009    7.2291   27.9124 3596.1049
 Diagonal vibrational polarizability:
        0.0000000       0.0000000       0.0015307
 Harmonic frequencies (cm**-1), IR intensities (KM/Mole), Raman scattering
 activities (A**4/AMU), depolarization ratios for plane and unpolarized
 incident light, reduced masses (AMU), force constants (mDyne/A),
 and normal coordinates:
                      1
                     SG
 Frequencies --   3596.1049
 Red. masses --      1.0671
 Frc consts  --      8.1305
 IR Inten    --      0.7356
  Atom  AN      X      Y      Z
     1   8    -0.00   0.00  -0.06
     2   1     0.00  -0.00   1.00

 -------------------
 - Thermochemistry -
 -------------------
 Temperature   298.150 Kelvin.  Pressure   1.00000 Atm.
 Atom     1 has atomic number  8 and mass  15.99491
 Atom     2 has atomic number  1 and mass   1.00783
 Molecular mass:    17.00274 amu.
 Principal axes and moments of inertia in atomic units:
                           1         2         3
     Eigenvalues --     0.00000   3.30525   3.30525
           X            0.00000   0.99991  -0.01371
           Y           -0.00000   0.01371   0.99991
           Z            1.00000   0.00000   0.00000
 This molecule is a prolate symmetric top.
 Rotational symmetry number  1.
 Rotational temperature (Kelvin)     26.20496
 Rotational constant (GHZ):         546.022707
 Zero-point vibrational energy      21509.5 (Joules/Mol)
                                    5.14089 (Kcal/Mol)
 Vibrational temperatures:   5173.99
          (Kelvin)
 
 Zero-point correction=                           0.008193 (Hartree/Particle)
 Thermal correction to Energy=                    0.010553
 Thermal correction to Enthalpy=                  0.011497
 Thermal correction to Gibbs Free Energy=        -0.008759
 Sum of electronic and zero-point Energies=            -75.633629
 Sum of electronic and thermal Energies=               -75.631269
 Sum of electronic and thermal Enthalpies=             -75.630325
 Sum of electronic and thermal Free Energies=          -75.650581
 
                     E (Thermal)             CV                S
                      KCal/Mol        Cal/Mol-Kelvin    Cal/Mol-Kelvin
 Total                    6.622              4.968             42.633
 Electronic               0.000              0.000              1.377
 Translational            0.889              2.981             34.437
 Rotational               0.592              1.987              6.819
 Vibrational              5.141              0.000              0.000
                       Q            Log10(Q)             Ln(Q)
 Total Bot       0.106909D+05          4.029015          9.277150
 Total V=0       0.627066D+08          7.797314         17.953978
 Vib (Bot)       0.170491D-03         -3.768299         -8.676828
 Vib (V=0)       0.100000D+01          0.000000          0.000000
 Electronic      0.200000D+01          0.301030          0.693147
 Translational   0.275570D+07          6.440232         14.829183
 Rotational      0.113776D+02          1.056051          2.431648
 ***** Axes restored to original set *****
 -------------------------------------------------------------------
 Center     Atomic                   Forces (Hartrees/Bohr)
 Number     Number              X              Y              Z
 -------------------------------------------------------------------
      1        8           0.000001190    0.000000017    0.000000000
      2        1          -0.000001190   -0.000000017   -0.000000000
 -------------------------------------------------------------------
 Cartesian Forces:  Max     0.000001190 RMS     0.000000687
 FormGI is forming the generalized inverse of G from B-inverse, IUseBI=4.

 GradGradGradGradGradGradGradGradGradGradGradGradGradGradGradGradGradGrad
 Berny optimization.
 Internal  Forces:  Max     0.000001190 RMS     0.000001190
 Search for a local minimum.
 Step number   1 out of a maximum of    2
 All quantities printed in internal units (Hartrees-Bohrs-Radians)
 Second derivative matrix not updated -- analytic derivatives used.
 The second derivative matrix:
                          R1
           R1           0.46399
 ITU=  0
     Eigenvalues ---    0.46399
 Angle between quadratic step and forces=   0.00 degrees.
 Linear search not attempted -- first point.
 Iteration  1 RMS(Cart)=  0.00000181 RMS(Int)=  0.00000000
 Iteration  2 RMS(Cart)=  0.00000000 RMS(Int)=  0.00000000
 ClnCor:  largest displacement from symmetrization is 5.55D-17 for atom     1.
 Variable       Old X    -DE/DX   Delta X   Delta X   Delta X     New X
                                 (Linear)    (Quad)   (Total)
    R1        1.86714   0.00000   0.00000   0.00000   0.00000   1.86715
         Item               Value     Threshold  Converged?
 Maximum Force            0.000001     0.000450     YES
 RMS     Force            0.000001     0.000300     YES
 Maximum Displacement     0.000001     0.001800     YES
 RMS     Displacement     0.000002     0.001200     YES
 Predicted change in Energy=-1.526045D-12
 Optimization completed.
    -- Stationary point found.
                           ----------------------------
                           !   Optimized Parameters   !
                           ! (Angstroms and Degrees)  !
 --------------------------                            --------------------------
 ! Name  Definition              Value          Derivative Info.                !
 --------------------------------------------------------------------------------
 ! R1    R(1,2)                  0.9881         -DE/DX =    0.0                 !
 --------------------------------------------------------------------------------
 GradGradGradGradGradGradGradGradGradGradGradGradGradGradGradGradGradGrad


 ----------------------------------------------------------------------

 Electric dipole moment (input orientation):
 (Debye = 10**-18 statcoulomb cm , SI units = C m)
                  (au)            (Debye)         (10**-30 SI)
   Tot        0.664697D+00      0.168949D+01      0.563554D+01
   x         -0.664631D+00     -0.168932D+01     -0.563497D+01
   y         -0.941625D-02     -0.239337D-01     -0.798343D-01
   z          0.000000D+00      0.000000D+00      0.000000D+00

 Dipole polarizability, Alpha (input orientation).
 (esu units = cm**3 , SI units = C**2 m**2 J**-1)
 Alpha(0;0):
               (au)            (10**-24 esu)      (10**-40 SI)
   iso        0.401886D+01      0.595534D+00      0.662621D+00
   aniso      0.387497D+01      0.574211D+00      0.638896D+00
   xx         0.659479D+01      0.977247D+00      0.108733D+01
   yx         0.570070D-01      0.844757D-02      0.939919D-02
   yy         0.257185D+01      0.381109D+00      0.424041D+00
   zx        -0.640156D-04     -0.948614D-05     -0.105547D-04
   zy         0.451844D-02      0.669563D-03      0.744989D-03
   zz         0.288994D+01      0.428245D+00      0.476486D+00

 ----------------------------------------------------------------------

 Dipole orientation:
     8         -0.01664932          1.17516484          0.38311211
     1         -0.01664932          1.17516484          2.25025705

 Electric dipole moment (dipole orientation):
 (Debye = 10**-18 statcoulomb cm , SI units = C m)
                  (au)            (Debye)         (10**-30 SI)
   Tot        0.664697D+00      0.168949D+01      0.563554D+01
   x          0.000000D+00      0.000000D+00      0.000000D+00
   y          0.000000D+00      0.000000D+00      0.000000D+00
   z          0.664697D+00      0.168949D+01      0.563554D+01

 Dipole polarizability, Alpha (dipole orientation).
 (esu units = cm**3 , SI units = C**2 m**2 J**-1)
 Alpha(0;0):
               (au)            (10**-24 esu)      (10**-40 SI)
   iso        0.401886D+01      0.595534D+00      0.662621D+00
   aniso      0.387497D+01      0.574211D+00      0.638896D+00
   xx         0.288975D+01      0.428216D+00      0.476455D+00
   yx         0.903415D-02      0.133872D-02      0.148953D-02
   yy         0.257124D+01      0.381018D+00      0.423940D+00
   zx         0.000000D+00      0.000000D+00      0.000000D+00
   zy         0.000000D+00      0.000000D+00      0.000000D+00
   zz         0.659560D+01      0.977367D+00      0.108747D+01

 ----------------------------------------------------------------------
 Unable to Open any file for archive entry.
 1\1\GINC-HPC-I30-14\Freq\UPBEPBE\6-31G(d,p)\H1O1(2)\GDB20\05-Oct-2024\
 0\\#N Geom=AllCheck Guess=TCheck SCRF=Check GenChk UPBEPBE/6-31G(d,p) 
 Freq\\created with so and so tool\\0,2\O,-0.2115242966,0.6189984751,0.
 \H,-1.1994757034,0.6050015249,0.\\Version=EM64L-G16RevC.01\HF=-75.6418
 218\S2=0.751652\S2-1=0.\S2A=0.750001\RMSD=2.101e-10\RMSF=6.871e-07\Zer
 oPoint=0.0081925\Thermal=0.010553\ETot=-75.6312688\HTot=-75.6303246\GT
 ot=-75.6505811\Dipole=-0.6646305,-0.0094163,0.\DipoleDeriv=-0.0268124,
 0.0046636,0.,0.0046636,-0.355918,0.0000007,0.,0.0000007,-0.355935,0.02
 68124,-0.0046636,0.,-0.0046636,0.355918,-0.0000007,0.,-0.0000007,0.355
 935\Polar=6.5947912,0.057007,2.5718518,-0.000064,0.0045184,2.8899384\Q
 uadrupole=0.6752048,-0.7562202,0.0810154,0.020284,-0.0001681,0.0118669
 \PG=C*V [C*(H1O1)]\NImag=0\\0.46389227,0.00657224,0.00009499,0.,0.0000
 0037,0.00002795,-0.46389227,-0.00657224,0.,0.46389227,-0.00657224,-0.0
 0009499,-0.00000037,0.00657224,0.00009499,0.,-0.00000037,-0.00002795,0
 .,0.00000037,0.00002795\\-0.00000119,-0.00000002,0.,0.00000119,0.00000
 002,0.\\\@
 The archive entry for this job was punched.


 There was a great rattling of the words for the fewness of ideas.
                   -- Charles Baxter in Gryphon
 Job cpu time:       0 days  0 hours  0 minutes  5.8 seconds.
 Elapsed time:       0 days  0 hours  0 minutes  5.7 seconds.
 File lengths (MBytes):  RWF=    136 Int=      0 D2E=      0 Chk=     16 Scr=     16
 Normal termination of Gaussian 16 at Sat Oct  5 18:31:24 2024.
