84
 energy: -126.882515833272 gnorm: 1.258695160471 xtb: 6.6.1 (8d0f1dd)
C            0.00000000000000        0.00000000000000        0.00000000000000
C           -2.06805000000000       -0.34906400000000       -1.21762000000000
C           -1.36204000000000       -0.31562800000000       -2.41240000000000
C            0.02500000000000       -0.37330400000000       -2.40098000000000
C            0.70601000000000       -0.46317800000000       -1.19478000000000
C            2.11805300000000       -1.12853600000000       -3.58434400000000
C            0.73101300000000       -0.72035100000000       -3.59577000000000
C            2.09305100000000       -0.87201500000000       -1.18336400000000
C            2.79906200000000       -1.14764100000000       -2.37814600000000
H            0.20005500000000       -0.83900400000000       -4.53596200000000
C            4.18607300000000       -1.55751900000000       -2.36671400000000
C            4.86709000000000       -1.65579900000000       -1.16048800000000
C            4.16107100000000       -1.69346200000000        0.03430100000000
C            2.77406000000000       -1.27722200000000        0.02286900000000
H            4.73643000000000       -1.82026300000000       -3.29805300000000
H            5.94828600000000       -1.73149400000000       -1.15146100000000
H            4.69192400000000       -2.06427300000000        0.97455100000000
H            2.22372100000000       -1.34747000000000        0.95422200000000
C            2.72831900000000       -1.58444800000000       -4.61712900000000
C            2.83183900000000        0.50927800000000       -4.93712200000000
C            2.66704100000000        1.39931600000000       -5.80939300000000
C            2.25633800000000        1.10506100000000       -7.11571500000000
C            2.01042700000000       -0.12786400000000       -7.54976000000000
C            2.17521900000000       -1.19531200000000       -6.67747800000000
C            2.58592900000000       -0.83259900000000       -5.37116700000000
H            3.15188200000000        0.89658200000000       -3.91881000000000
H            2.85866400000000        2.43333200000000       -5.47114200000000
H            2.12792700000000        1.97180700000000       -7.79566100000000
H            1.69039400000000       -0.12935200000000       -8.56808000000000
H            1.98355200000000       -2.18076500000000       -7.01582900000000
C            3.01645600000000       -3.96732100000000       -4.95853400000000
C            3.88747900000000       -5.31669300000000       -5.28078600000000
C            5.22328700000000       -5.30557900000000       -5.54026700000000
C            5.68807200000000       -3.99340600000000       -5.47749100000000
C            4.81704300000000       -2.83099800000000       -5.15522900000000
C            3.48124100000000       -2.77112300000000       -4.89575700000000
H            1.97521300000000       -3.81400400000000       -4.75616500000000
H            3.52528800000000       -6.26015400000000       -5.32970800000000
H            5.90223400000000       -6.17344600000000       -5.79151000000000
H            6.72931900000000       -3.73652300000000       -5.67987300000000
H            5.17934400000000       -1.83119100000000       -5.10631800000000
C           -2.04304900000000       -0.60304200000000       -3.61859800000000
C           -3.43008900000000       -0.89835400000000       -3.63002400000000
C           -4.13610100000000       -0.86466400000000       -2.43523200000000
C           -3.45509200000000       -0.64381600000000       -1.22903400000000
H           -1.49272100000000       -0.76493000000000       -4.54994800000000
H           -3.96104700000000       -1.26228100000000       -4.57021600000000
H           -5.21729500000000       -1.11343700000000       -2.44414300000000
H           -4.00544100000000       -0.89654200000000       -0.29769400000000
C           -1.19896700000000        0.04878400000000       -0.00986300000000
C            0.91646000000000        0.40791500000000        1.24139000000000
C            0.20652800000000        0.35237700000000        2.43320000000000
C           -1.20003200000000        0.21023300000000        2.40800000000000
C           -1.89422700000000        0.14926900000000        1.19276700000000
C           -3.39915500000000        0.50280400000000        2.86102500000000
C           -3.26867100000000        0.33800700000000        1.48886200000000
C           -2.13731500000000        0.40500900000000        3.41003800000000
C           -4.63101200000000        0.94818100000000        3.44935200000000
C           -5.73916200000000        1.13374700000000        2.63860500000000
C           -5.60379900000000        0.99760100000000        1.24810200000000
C           -4.36284200000000        0.64899200000000        0.66648600000000
H           -4.72050500000000        1.22485000000000        4.54508600000000
H           -6.70224400000000        1.45133900000000        3.09505900000000
H           -6.45630000000000        1.26240800000000        0.62445900000000
H           -4.23609200000000        0.76874800000000       -0.40176200000000
C           -1.02611300000000        1.76375700000000        5.17640700000000
C           -0.71904300000000        2.01096000000000        6.55508100000000
C           -1.26469500000000        1.04034900000000        7.35405600000000
C           -2.09715400000000        0.03777200000000        6.78929900000000
C           -2.39631800000000       -0.12549900000000        5.41644300000000
C           -1.86868300000000        0.65366000000000        4.60419400000000
H           -0.61072400000000        2.41349100000000        4.54619100000000
H           -0.06147200000000        2.88421400000000        7.00178300000000
H           -1.04842500000000        0.98795100000000        8.41173700000000
H           -2.52005200000000       -0.69182300000000        7.41399700000000
H           -3.04527900000000       -0.90726300000000        4.97619000000000
C            0.92648400000000        0.68728700000000        3.66742800000000
C            2.34438600000000        0.95005300000000        3.70100000000000
C            3.03832600000000        0.83551100000000        2.49738300000000
C            2.33405500000000        0.66739500000000        1.27472100000000
H            0.38781200000000        0.80046000000000        4.60731400000000
H            2.90870400000000        1.24301600000000        4.66525400000000
H            4.12988800000000        0.89477000000000        2.51346100000000
H            2.89685700000000        0.81059200000000        0.35262500000000
84
 energy: -127.260176756114 gnorm: 0.417003269446 xtb: 6.6.1 (8d0f1dd)
C            0.06762560280462        0.00173170750830       -0.00301842259749
C           -2.07383911126007       -0.34380275677839       -1.21889958198993
C           -1.37414919024947       -0.32232700851230       -2.42496280933784
C            0.04185152101060       -0.38274721914215       -2.40977914749100
C            0.73263864912583       -0.45241056233117       -1.19256329284312
C            2.09395529948328       -1.15639561670046       -3.51927903788475
C            0.74093312306275       -0.72589366512777       -3.58580831678360
C            2.10609260124457       -0.88374243035802       -1.16224837153573
C            2.80660370723325       -1.16077885772132       -2.34075723088972
H            0.21101156946648       -0.83741154353113       -4.53060848406269
C            4.18501436970954       -1.55114504020564       -2.35701057338270
C            4.86450342974880       -1.65624196951894       -1.16015059324318
C            4.14988694179413       -1.68904012106779        0.03669397505023
C            2.78580500210240       -1.29625664506759        0.02475334345474
H            4.72757670000338       -1.80940260250751       -3.28173589786715
H            5.94577432258302       -1.73811604401333       -1.15238286948942
H            4.67740295855095       -2.05353260899822        0.96120387907779
H            2.22858489038208       -1.35787819183042        0.94874326543528
C            2.74853554509817       -1.67225758509176       -4.56319477951250
C            2.82880113687330        0.52305430491062       -4.94187376994983
C            2.66390488633893        1.44993659297884       -5.83237818115771
C            2.25558316082563        1.13726673119437       -7.12722409598988
C            2.00552905427897       -0.11835107379584       -7.56874476639963
C            2.18061812317984       -1.16930285388883       -6.71806587532593
C            2.58419966741107       -0.77010172342496       -5.46038466801719
H            3.15156484594850        0.87418039337574       -3.92982195797215
H            2.85715348164361        2.45024451433958       -5.48286006725890
H            2.12754774208277        1.97549729898307       -7.79960768005100
H            1.68433523295940       -0.14046435044809       -8.58038268986743
H            1.98441460747672       -2.18117154662921       -7.01345641008278
C            3.00772883497362       -4.03468693047387       -4.96257702561150
C            3.86843095816642       -5.29573773628153       -5.27650208138563
C            5.21512519803443       -5.27761466387754       -5.53599053042185
C            5.68966010988521       -3.96367240060888       -5.47647994149664
C            4.85777360085447       -2.83339363814966       -5.16634841105844
C            3.51100743192885       -2.81636116280810       -4.88042004266218
H            1.96307466614138       -3.85765669563384       -4.75778466099441
H            3.49797737615650       -6.27022138838470       -5.32588788761010
H            5.88353494555574       -6.15337599000582       -5.78443011780324
H            6.72888121317153       -3.73318603328786       -5.67856257059113
H            5.20830216992467       -1.82609507456606       -5.11573054492809
C           -2.05789744639375       -0.61075445428329       -3.62323213886777
C           -3.42789161799779       -0.89670993461832       -3.63371978181534
C           -4.13188576090713       -0.87122908346332       -2.43551139769805
C           -3.44864933929092       -0.66487372022335       -1.23458471523107
H           -1.50240571678207       -0.76087194715664       -4.54667855671402
H           -3.95099502218042       -1.25248197121373       -4.55870310977456
H           -5.20692589098527       -1.11198489844855       -2.44115317579555
H           -3.99335793005756       -0.90914300983376       -0.31185308067392
C           -1.24496536769348        0.03311474794409       -0.01578661833840
C            0.92095224125558        0.40503192667298        1.23791843637266
C            0.22367415749601        0.36247113049429        2.44516959717259
C           -1.19310971116737        0.21820309130269        2.39342370584013
C           -1.90874811760629        0.15234449870420        1.19036557015121
C           -3.42049230882295        0.50632021645516        2.85854604847883
C           -3.28843596545447        0.34748018850889        1.47984387833816
C           -2.12901559241637        0.42420792902431        3.37609311778548
C           -4.63172475929010        0.94721292679624        3.45293149939135
C           -5.73779864058086        1.13256238955680        2.64022990117717
C           -5.60374020482058        1.00118394222974        1.25202828637678
C           -4.37548899211938        0.67040546172979        0.67254774447555
H           -4.71499593891165        1.21774268432411        4.53217422109499
H           -6.69357632450782        1.44847806115301        3.08942298650307
H           -6.45267204828186        1.26018947392870        0.62510164383030
H           -4.24371065722803        0.78476017701266       -0.39397613429219
C           -1.02636151455792        1.77319693335203        5.19261769907398
C           -0.72461979796358        2.00471203695591        6.54602358229254
C           -1.27274488564993        1.02727826603860        7.35620633250715
C           -2.09864076942558        0.03034454368348        6.81204220927877
C           -2.40954246050157       -0.14064103436520        5.47117981285795
C           -1.84116138630021        0.69668291917809        4.64506542444090
H           -0.60550043767947        2.43823656205726        4.52505439627326
H           -0.07899004400018        2.86150290651300        6.98264711240821
H           -1.05225785371162        0.98761676232856        8.41303965120375
H           -2.52385720968326       -0.70192786474828        7.43437537097874
H           -3.04322207484160       -0.90894071565021        4.99857156119149
C            0.94178345286100        0.68581438640305        3.66332669939696
C            2.33304144004110        0.94282306245995        3.69804905824775
C            3.02872381890119        0.83971946034391        2.49188048693237
C            2.32663376976412        0.68031119420904        1.28036468920215
H            0.39812957306851        0.79078310283176        4.59888545418928
H            2.89193042724761        1.23369447463798        4.64619428206028
H            4.12127579986560        0.89841935134292        2.50804131097013
H            2.89198073160449        0.81380201330967        0.35977386123536
84
 energy: -127.414886662708 gnorm: 0.194401968451 xtb: 6.6.1 (8d0f1dd)
C            0.10999548665961        0.00833234003037       -0.00346813272681
C           -2.06608929114723       -0.33976783838949       -1.22241891769042
C           -1.37730529293615       -0.33682036852899       -2.44035845715559
C            0.06094040660987       -0.40118999728645       -2.41536073002689
C            0.76103752574346       -0.43268927851340       -1.17960470469869
C            2.07472620501929       -1.19457169381272       -3.48481964513572
C            0.75330386156340       -0.73824018093097       -3.57302399571036
C            2.12486788986392       -0.90507710344988       -1.13047630914371
C            2.81426554881297       -1.19338441027969       -2.30352243373282
H            0.23178964018524       -0.83249456590648       -4.52087443502030
C            4.18613402087641       -1.54327969186403       -2.33610797754106
C            4.86470922794140       -1.65648512676233       -1.15242077378177
C            4.13922671633847       -1.68700578393684        0.04091688957472
C            2.79931447122422       -1.33025135142664        0.03575256349548
H            4.71574339768825       -1.78344991223065       -3.25365415010078
H            5.94290740606921       -1.75363364768396       -1.14993608237951
H            4.65400660917944       -2.03559104880788        0.94704148018951
H            2.23691218751961       -1.38482008508592        0.94949919161019
C            2.75791755716022       -1.71805800491935       -4.56253467632224
C            2.83250135654596        0.51877940889524       -4.95702821003389
C            2.66129015508511        1.49442746034544       -5.85859966886524
C            2.25308971154398        1.17993646195536       -7.14585655736442
C            2.00184025701332       -0.09372978035160       -7.59361496376513
C            2.18973554500672       -1.14745276629874       -6.74312164005700
C            2.59808720285983       -0.76968310909099       -5.49025583307704
H            3.15053559158224        0.83153709785012       -3.95345154120016
H            2.85262839064987        2.48435756655416       -5.50530926660906
H            2.12378255948864        1.99605411468680       -7.81846612039071
H            1.67360905449575       -0.15314057379890       -8.60593215574523
H            1.98991738625354       -2.17488106049773       -7.01007418958089
C            3.01517000431933       -4.11123690106864       -4.96677313663245
C            3.82951654473465       -5.27156762117245       -5.26969355335521
C            5.18859706064283       -5.22863845804811       -5.52654288763117
C            5.69522297816018       -3.92446083377463       -5.47769720544541
C            4.90613363585134       -2.82848637175271       -5.18173243746342
C            3.54816286400522       -2.86467099251515       -4.88085959057851
H            1.95761538805826       -3.95002628668914       -4.76555130440493
H            3.45078631265874       -6.26863903858634       -5.31798218423633
H            5.84006417153841       -6.10697229450114       -5.76755242243220
H            6.73692443575421       -3.72857873384183       -5.67906452780839
H            5.26060049473441       -1.81717164919835       -5.13696740684822
C           -2.07146773667788       -0.62332133697182       -3.62865603287157
C           -3.42597728026843       -0.89323750677696       -3.63718840323041
C           -4.12108636978799       -0.88734440882414       -2.43439151782583
C           -3.43140593977602       -0.69897194926111       -1.24372498970367
H           -1.51888219858077       -0.75269086522896       -4.54808425540375
H           -3.93785140722592       -1.23209300225753       -4.54596421491534
H           -5.18926526648856       -1.11310310478495       -2.43388702534978
H           -3.96903945634167       -0.93778251210277       -0.33268736607000
C           -1.26354693892483        0.00473473097746       -0.02426384446164
C            0.91739858044722        0.40032896676005        1.22808019080428
C            0.24045844856045        0.37936706402671        2.45512221609417
C           -1.18546424311172        0.24384887768759        2.38824479162785
C           -1.91650340365709        0.15527476718588        1.18081430686384
C           -3.43626155774407        0.51868915871560        2.86343458665511
C           -3.30823613948555        0.36654699405571        1.47259891689384
C           -2.11620167379670        0.46282165486971        3.37128475941686
C           -4.63274313334900        0.94463490595891        3.45642437363852
C           -5.73739958887743        1.12981772339803        2.64343275951691
C           -5.60867247981700        1.01367834552061        1.25944049457194
C           -4.39131314202320        0.70804620100520        0.67925589926743
H           -4.70557431238106        1.20388763058885        4.51671338695077
H           -6.68343355571902        1.44356876447915        3.08274437858166
H           -6.45226488088141        1.25885943004276        0.62726475927685
H           -4.26063906545690        0.81819080183294       -0.38432288643891
C           -1.03265614152795        1.79663394130455        5.19999439634039
C           -0.73984092837454        1.98812056774117        6.53993078856493
C           -1.28254583678759        1.01035563858722        7.36573617931660
C           -2.10292647416894        0.01394373606624        6.84922600199435
C           -2.41414689189750       -0.14006644292582        5.52069102134443
C           -1.82328464831531        0.74560281524634        4.69117908636652
H           -0.60959790512310        2.47208996040345        4.50185198087891
H           -0.11076242566893        2.82005437789438        6.95023821659661
H           -1.05825436303842        0.98917107694917        8.42036128451689
H           -2.53071240355020       -0.72199916844092        7.48005294260305
H           -3.03433057514742       -0.90387903209269        5.03905279016537
C            0.95833670088809        0.68014807020221        3.65495458098016
C            2.31970600562147        0.92803924964484        3.68678899225604
C            3.01295806566589        0.85192243980511        2.47817696366806
C            2.31171308502912        0.70370525306586        1.28252094154275
H            0.41830879342686        0.76673482443031        4.58570065051378
H            2.86199741015311        1.21283495448479        4.61491909325452
H            4.10297189254618        0.91075387155444        2.49334251116485
H            2.88192470627980        0.82303064586701        0.36851239386441
84
 energy: -127.493149875790 gnorm: 0.102185482502 xtb: 6.6.1 (8d0f1dd)
C            0.13954523832774        0.01636348930008        0.00067722343546
C           -2.05026406795955       -0.34918906995007       -1.22682794720667
C           -1.36872350066383       -0.35626809305225       -2.45114586555442
C            0.08065755125003       -0.42297424196704       -2.41239468010276
C            0.78398557249604       -0.42439172192810       -1.16328748763911
C            2.07041149083117       -1.24976991115406       -3.46096175692020
C            0.77135267445064       -0.76502453503420       -3.55787958881670
C            2.13828846316195       -0.93459314089830       -1.10159882695947
C            2.81943903866408       -1.23911179238126       -2.27357323488450
H            0.26003851548485       -0.82958205782814       -4.51065710708333
C            4.18936410624483       -1.54506069806725       -2.31093598784784
C            4.87156124539639       -1.66001133992143       -1.13644445968750
C            4.13733247842821       -1.69354479991998        0.05236102305635
C            2.80760931569822       -1.36497795976434        0.05633464774704
H            4.70710520838973       -1.74874269344550       -3.23105661627283
H            5.94508739629280       -1.77291762429677       -1.14015914663638
H            4.63858430029418       -2.02171984509858        0.95015392663021
H            2.24307789016265       -1.42261883492064        0.96466623588328
C            2.76721195547594       -1.75802534917673       -4.56631153673631
C            2.83485956057723        0.52096421825080       -4.99479086233131
C            2.65653517853792        1.53261995160644       -5.88967490292200
C            2.24810089681182        1.22608339152496       -7.17476029839832
C            1.99907908304489       -0.05803132256265       -7.62911248978424
C            2.20195645099727       -1.11425918678639       -6.78128064090219
C            2.61707219561187       -0.76885620572694       -5.51632923749844
H            3.15272235162065        0.78364043454663       -3.98971362597985
H            2.84473038757433        2.52552577205286       -5.53376423598646
H            2.11435363733688        2.03451742976894       -7.85518422631326
H            1.65930547270902       -0.16129696207447       -8.63982442677325
H            2.00000983919443       -2.15220211585158       -7.02131393696401
C            3.02716596752114       -4.16975444064803       -4.96033340998415
C            3.79664595404371       -5.26479545664799       -5.26266012191697
C            5.16314377457737       -5.18639612633315       -5.51785899779772
C            5.70682458874035       -3.90138221613541       -5.48385446651129
C            4.93486902108208       -2.81064410548521       -5.19107026768773
C            3.57778810856628       -2.90614793361504       -4.87512565736674
H            1.95887735138407       -4.06051239154503       -4.77043826479948
H            3.40476195930985       -6.26942166408117       -5.31322464561937
H            5.79167212963262       -6.05827987479734       -5.75017919481424
H            6.75412063481436       -3.73711081198566       -5.68515402680684
H            5.30855276247540       -1.80162537691928       -5.15817654191718
C           -2.07290511340901       -0.63476254373812       -3.63405201963900
C           -3.42169043313787       -0.89086379353487       -3.63930022988409
C           -4.10588507796365       -0.90840915223782       -2.43017213508469
C           -3.40909028527949       -0.73266993005978       -1.25059449890092
H           -1.53030552993190       -0.74044861409732       -4.55778767686963
H           -3.93011439847115       -1.20210992183438       -4.54296683101287
H           -5.16917382628238       -1.12311659872192       -2.42166310001342
H           -3.93857327177380       -0.96971679874068       -0.34467650874241
C           -1.27612399448521       -0.01993371774225       -0.02943567225671
C            0.90991785678143        0.40140663349079        1.21735942348620
C            0.24492417217867        0.39794729892644        2.45634314979675
C           -1.18641242044317        0.28041232202910        2.38643692017863
C           -1.92361403699644        0.16517297091757        1.17168033103189
C           -3.44405204841466        0.53974119646057        2.86598441342368
C           -3.32232598242976        0.39179741123669        1.46813725299850
C           -2.10986493360851        0.50513785080190        3.37526722796983
C           -4.63402574822068        0.94535162440942        3.45847177427565
C           -5.74096802942612        1.12973022143526        2.64816268751199
C           -5.61840619687203        1.03347801917092        1.26753117755475
C           -4.40379266110717        0.74655783770448        0.68231864911643
H           -4.69691071857792        1.18547413786359        4.51100536248792
H           -6.68159419865654        1.43639990704549        3.08208732378772
H           -6.45989626866516        1.26269814558114        0.63147128437347
H           -4.28087678606497        0.85526900110409       -0.38023136033059
C           -1.04428151569331        1.82937514729561        5.20539538103874
C           -0.75888107055312        1.97125088479907        6.54690551499104
C           -1.29102458636905        0.99664105672601        7.38472464620537
C           -2.10970289583660       -0.00778333328241        6.89317777908869
C           -2.41586335049158       -0.13475441056171        5.56208372142562
C           -1.82207459561308        0.78667312594632        4.73090175971489
H           -0.62149775330485        2.51054162816147        4.48877889857389
H           -0.14024700120398        2.78068775939071        6.92924635061988
H           -1.06146343076577        0.99606461267897        8.43682818212371
H           -2.53568672844923       -0.74462333183661        7.53932363501762
H           -3.02503333534429       -0.89882323010224        5.08875993522713
C            0.96291906410304        0.67051805641546        3.64502516539914
C            2.31010279068309        0.91266695401293        3.66948515409632
C            2.99758445344133        0.87026632618027        2.45637082552054
C            2.29594612261115        0.72645011606832        1.27485858064303
H            0.43438832400988        0.72964503111479        4.57640693604400
H            2.83565667914061        1.18089698926187        4.58650344320078
H            4.08219794943871        0.93822091021390        2.46768156528707
H            2.86760863286535        0.83929341299613        0.36644924519409
84
 energy: -127.537605676494 gnorm: 0.064025032435 xtb: 6.6.1 (8d0f1dd)
C            0.15383350002900        0.01598880070321        0.00547246531116
C           -2.03071045378098       -0.37274184726853       -1.23204882352924
C           -1.34988385862652       -0.38260377504325       -2.45705995674996
C            0.10131066028018       -0.45162336271056       -2.40418669644373
C            0.80038397470739       -0.44031348348006       -1.14879769199247
C            2.08309638870782       -1.30104742336728       -3.45317751484292
C            0.79484396770933       -0.79680211212019       -3.54516486353793
C            2.14403597537973       -0.97876285193039       -1.07806207492497
C            2.82173737687281       -1.29395100148040       -2.25178310276029
H            0.29346735560913       -0.83193683824785       -4.50211760259377
C            4.19657149128084       -1.55693293897283       -2.28063685539839
C            4.88251044062451       -1.67056054974300       -1.10947768945189
C            4.14358762100847       -1.71012701355990        0.07469340977002
C            2.80947794824851       -1.40359949928534        0.08325532193272
H            4.71077633707027       -1.70906800403531       -3.20971562105542
H            5.95290670631867       -1.79350400399078       -1.11802839750516
H            4.63679943008082       -2.01430172410213        0.97890104220835
H            2.24822008134218       -1.47105749336213        0.99269360867608
C            2.77634971831560       -1.77805820115375       -4.58243627288751
C            2.83835120373235        0.53104710894596       -5.04734984912643
C            2.65228731982041        1.56642671133926       -5.92930742679765
C            2.24055473521357        1.27447349293093       -7.21673573989898
C            1.99844789302727       -0.01656616372356       -7.67011868743595
C            2.21512381745161       -1.07476261641748       -6.82349775081674
C            2.63361130534173       -0.76295029394321       -5.54305231929569
H            3.15916389343560        0.74250956450738       -4.03374339675334
H            2.83197569065934        2.56703569336919       -5.57429055567663
H            2.09849181649605        2.08432527866754       -7.90283308453284
H            1.64578171682905       -0.15891539708476       -8.67741772268932
H            2.01574795419637       -2.11535939018714       -7.05173189146761
C            3.02100996068996       -4.19405488593602       -4.94277236437458
C            3.78980476744908       -5.29392763269814       -5.26296089201588
C            5.15562380257217       -5.16655520147109       -5.51544860959643
C            5.71695650689192       -3.89674572103402       -5.49182207008049
C            4.94406534986592       -2.79422523526098       -5.20200749747391
C            3.59244547300211       -2.92640077259520       -4.87559123004332
H            1.94877970629557       -4.15769448984793       -4.76102418058346
H            3.37876705208236       -6.29259658405312       -5.31664653797709
H            5.76671419100337       -6.02802499093856       -5.74094369841129
H            6.76741012113644       -3.75033725893991       -5.69493291226257
H            5.34927005616816       -1.79237556267545       -5.18751889561647
C           -2.06274582241818       -0.64362319621818       -3.63936836427856
C           -3.41305658971699       -0.88772155000919       -3.63943422501666