 Entering Gaussian System, Link 0=g16
 Initial command:
 /gpfs/research/software/gaussian16/amd/g16/l1.exe "/gpfs/home/gdb20/code/input_macros/temp/h2o2_pbepbe_6-31++Gdp/Gau-2867040.inp" -scrdir="/gpfs/home/gdb20/code/input_macros/temp/h2o2_pbepbe_6-31++Gdp/"
 Entering Link 1 = /gpfs/research/software/gaussian16/amd/g16/l1.exe PID=   2867041.
  
 Copyright (c) 1988-2019, Gaussian, Inc.  All Rights Reserved.
  
 This is part of the Gaussian(R) 16 program.  It is based on
 the Gaussian(R) 09 system (copyright 2009, Gaussian, Inc.),
 the Gaussian(R) 03 system (copyright 2003, Gaussian, Inc.),
 the Gaussian(R) 98 system (copyright 1998, Gaussian, Inc.),
 the Gaussian(R) 94 system (copyright 1995, Gaussian, Inc.),
 the Gaussian 92(TM) system (copyright 1992, Gaussian, Inc.),
 the Gaussian 90(TM) system (copyright 1990, Gaussian, Inc.),
 the Gaussian 88(TM) system (copyright 1988, Gaussian, Inc.),
 the Gaussian 86(TM) system (copyright 1986, Carnegie Mellon
 University), and the Gaussian 82(TM) system (copyright 1983,
 Carnegie Mellon University). Gaussian is a federally registered
 trademark of Gaussian, Inc.
  
 This software contains proprietary and confidential information,
 including trade secrets, belonging to Gaussian, Inc.
  
 This software is provided under written license and may be
 used, copied, transmitted, or stored only in accord with that
 written license.
  
 The following legend is applicable only to US Government
 contracts under FAR:
  
                    RESTRICTED RIGHTS LEGEND
  
 Use, reproduction and disclosure by the US Government is
 subject to restrictions as set forth in subparagraphs (a)
 and (c) of the Commercial Computer Software - Restricted
 Rights clause in FAR 52.227-19.
  
 Gaussian, Inc.
 340 Quinnipiac St., Bldg. 40, Wallingford CT 06492
  
  
 ---------------------------------------------------------------
 Warning -- This program may not be used in any manner that
 competes with the business of Gaussian, Inc. or will provide
 assistance to any competitor of Gaussian, Inc.  The licensee
 of this program is prohibited from giving any competitor of
 Gaussian, Inc. access to this program.  By using this program,
 the user acknowledges that Gaussian, Inc. is engaged in the
 business of creating and licensing software in the field of
 computational chemistry and represents and warrants to the
 licensee that it is not a competitor of Gaussian, Inc. and that
 it will not use this program in any manner prohibited above.
 ---------------------------------------------------------------
  

 Cite this work as:
 Gaussian 16, Revision C.01,
 M. J. Frisch, G. W. Trucks, H. B. Schlegel, G. E. Scuseria, 
 M. A. Robb, J. R. Cheeseman, G. Scalmani, V. Barone, 
 G. A. Petersson, H. Nakatsuji, X. Li, M. Caricato, A. V. Marenich, 
 J. Bloino, B. G. Janesko, R. Gomperts, B. Mennucci, H. P. Hratchian, 
 J. V. Ortiz, A. F. Izmaylov, J. L. Sonnenberg, D. Williams-Young, 
 F. Ding, F. Lipparini, F. Egidi, J. Goings, B. Peng, A. Petrone, 
 T. Henderson, D. Ranasinghe, V. G. Zakrzewski, J. Gao, N. Rega, 
 G. Zheng, W. Liang, M. Hada, M. Ehara, K. Toyota, R. Fukuda, 
 J. Hasegawa, M. Ishida, T. Nakajima, Y. Honda, O. Kitao, H. Nakai, 
 T. Vreven, K. Throssell, J. A. Montgomery, Jr., J. E. Peralta, 
 F. Ogliaro, M. J. Bearpark, J. J. Heyd, E. N. Brothers, K. N. Kudin, 
 V. N. Staroverov, T. A. Keith, R. Kobayashi, J. Normand, 
 K. Raghavachari, A. P. Rendell, J. C. Burant, S. S. Iyengar, 
 J. Tomasi, M. Cossi, J. M. Millam, M. Klene, C. Adamo, R. Cammi, 
 J. W. Ochterski, R. L. Martin, K. Morokuma, O. Farkas, 
 J. B. Foresman, and D. J. Fox, Gaussian, Inc., Wallingford CT, 2019.
 
 ******************************************
 Gaussian 16:  EM64L-G16RevC.01  3-Jul-2019
                 5-Oct-2024 
 ******************************************
 %nprocshared=1
 Will use up to    1 processors via shared memory.
 %mem=2gb
 %chk=/gpfs/home/gdb20/code/input_macros/temp/h2o2_pbepbe_6-31++Gdp/h2o2_pbepbe_6
 -31++Gdp.chk
 ----------------------------
 #upbepbe/6-31g(d,p) OPT FREQ
 ----------------------------
 1/18=20,19=15,26=3,38=1/1,3;
 2/9=110,12=2,17=6,18=5,40=1/2;
 3/5=1,6=6,7=101,11=2,25=1,30=1,71=1,74=1009,116=2/1,2,3;
 4//1;
 5/5=2,38=5/2;
 6/7=2,8=2,9=2,10=2,28=1/1;
 7//1,2,3,16;
 1/18=20,19=15,26=3/3(2);
 2/9=110/2;
 99//99;
 2/9=110/2;
 3/5=1,6=6,7=101,11=2,25=1,30=1,71=1,74=1009,116=2/1,2,3;
 4/5=5,16=3,69=1/1;
 5/5=2,38=5/2;
 7//1,2,3,16;
 1/18=20,19=15,26=3/3(-5);
 2/9=110/2;
 6/7=2,8=2,9=2,10=2,19=2,28=1/1;
 99/9=1/99;
 ---------------------------
 created with so and so tool
 ---------------------------
 Symbolic Z-matrix:
 Charge =  0 Multiplicity = 1
 O                    -1.682     2.047     0. 
 O                    -0.129     1.364     0. 
 H                    -2.824     1.447     0. 
 H                     0.9176    2.2       0. 
 
 Add virtual bond connecting atoms H3         and O1         Dist= 2.44D+00.
 Add virtual bond connecting atoms H4         and O2         Dist= 2.53D+00.
 Add virtual bond connecting atoms O2         and O1         Dist= 3.21D+00.

 GradGradGradGradGradGradGradGradGradGradGradGradGradGradGradGradGradGrad
 Berny optimization.
 Initialization pass.
                           ----------------------------
                           !    Initial Parameters    !
                           ! (Angstroms and Degrees)  !
 --------------------------                            --------------------------
 ! Name  Definition              Value          Derivative Info.                !
 --------------------------------------------------------------------------------
 ! R1    R(1,2)                  1.6966         estimate D2E/DX2                !
 ! R2    R(1,3)                  1.29           estimate D2E/DX2                !
 ! R3    R(2,4)                  1.3395         estimate D2E/DX2                !
 ! A1    A(2,1,3)              128.5432         estimate D2E/DX2                !
 ! A2    A(1,2,4)              117.6433         estimate D2E/DX2                !
 ! D1    D(3,1,2,4)            180.0            estimate D2E/DX2                !
 --------------------------------------------------------------------------------
 Trust Radius=3.00D-01 FncErr=1.00D-07 GrdErr=1.00D-06 EigMax=2.50D+02 EigMin=1.00D-04
 Number of steps in this run=     20 maximum allowed number of steps=    100.
 GradGradGradGradGradGradGradGradGradGradGradGradGradGradGradGradGradGrad

                          Input orientation:                          
 ---------------------------------------------------------------------
 Center     Atomic      Atomic             Coordinates (Angstroms)
 Number     Number       Type             X           Y           Z
 ---------------------------------------------------------------------
      1          8           0       -1.682000    2.047000    0.000000
      2          8           0       -0.129000    1.364000    0.000000
      3          1           0       -2.824000    1.447000    0.000000
      4          1           0        0.917600    2.200000    0.000000
 ---------------------------------------------------------------------
                    Distance matrix (angstroms):
                    1          2          3          4
     1  O    0.000000
     2  O    1.696555   0.000000
     3  H    1.290025   2.696278   0.000000
     4  H    2.604099   1.339503   3.816619   0.000000
 Stoichiometry    H2O2
 Framework group  CS[SG(H2O2)]
 Deg. of freedom     5
 Full point group                 CS      NOp   2
 Largest Abelian subgroup         CS      NOp   2
 Largest concise Abelian subgroup C1      NOp   1
                         Standard orientation:                         
 ---------------------------------------------------------------------
 Center     Atomic      Atomic             Coordinates (Angstroms)
 Number     Number       Type             X           Y           Z
 ---------------------------------------------------------------------
      1          8           0        0.009868    0.838148   -0.000000
      2          8           0        0.009868   -0.858407    0.000000
      3          1           0        1.018846    1.641968   -0.000000
      4          1           0       -1.176734   -1.479891    0.000000
 ---------------------------------------------------------------------
 Rotational constants (GHZ):         254.1399969          17.7941090          16.6297449
 Standard basis: 6-31G(d,p) (6D, 7F)
 There are    30 symmetry adapted cartesian basis functions of A'  symmetry.
 There are    10 symmetry adapted cartesian basis functions of A"  symmetry.
 There are    30 symmetry adapted basis functions of A'  symmetry.
 There are    10 symmetry adapted basis functions of A"  symmetry.
    40 basis functions,    70 primitive gaussians,    40 cartesian basis functions
     9 alpha electrons        9 beta electrons
       nuclear repulsion energy        29.7389403611 Hartrees.
 NAtoms=    4 NActive=    4 NUniq=    4 SFac= 1.00D+00 NAtFMM=   60 NAOKFM=F Big=F
 Integral buffers will be    131072 words long.
 Raffenetti 2 integral format.
 Two-electron integral symmetry is turned on.
 One-electron integrals computed using PRISM.
 NBasis=    40 RedAO= T EigKep=  2.14D-02  NBF=    30    10
 NBsUse=    40 1.00D-06 EigRej= -1.00D+00 NBFU=    30    10
 ExpMin= 1.61D-01 ExpMax= 5.48D+03 ExpMxC= 8.25D+02 IAcc=3 IRadAn=         5 AccDes= 0.00D+00
 Harris functional with IExCor= 1009 and IRadAn=       5 diagonalized for initial guess.
 HarFok:  IExCor= 1009 AccDes= 0.00D+00 IRadAn=         5 IDoV= 1 UseB2=F ITyADJ=14
 ICtDFT=  3500011 ScaDFX=  1.000000  1.000000  1.000000  1.000000
 FoFCou: FMM=F IPFlag=           0 FMFlag=      100000 FMFlg1=           0
         NFxFlg=           0 DoJE=T BraDBF=F KetDBF=T FulRan=T
         wScrn=  0.000000 ICntrl=       500 IOpCl=  0 I1Cent=   200000004 NGrid=           0
         NMat0=    1 NMatS0=      1 NMatT0=    0 NMatD0=    1 NMtDS0=    0 NMtDT0=    0
 Petite list used in FoFCou.
 Initial guess orbital symmetries:
 Alpha Orbitals:
       Occupied  (A') (A') (A') (A') (A') (A') (A") (A') (A")
       Virtual   (A') (A') (A') (A') (A') (A') (A") (A') (A") (A')
                 (A') (A') (A') (A") (A') (A") (A') (A") (A') (A')
                 (A') (A") (A") (A') (A") (A') (A') (A') (A') (A')
                 (A')
 Beta  Orbitals:
       Occupied  (A') (A') (A') (A') (A') (A') (A") (A') (A")
       Virtual   (A') (A') (A') (A') (A') (A') (A") (A') (A") (A')
                 (A') (A') (A') (A") (A') (A") (A') (A") (A') (A')
                 (A') (A") (A") (A') (A") (A') (A') (A') (A') (A')
                 (A')
 The electronic state of the initial guess is 1-A'.
 Initial guess <Sx>= 0.0000 <Sy>= 0.0000 <Sz>= 0.0000 <S**2>= 0.0000 S= 0.0000
 Keep J ints in memory in symmetry-blocked form, NReq=1203603.
 Requested convergence on RMS density matrix=1.00D-08 within 128 cycles.
 Requested convergence on MAX density matrix=1.00D-06.
 Requested convergence on             energy=1.00D-06.
 No special actions if energy rises.
 Integral accuracy reduced to 1.0D-05 until final iterations.
 EnCoef did     3 forward-backward iterations
 EnCoef did     2 forward-backward iterations
 Initial convergence to 1.0D-05 achieved.  Increase integral accuracy.
 SCF Done:  E(UPBE-PBE) =  -151.229435563     A.U. after   16 cycles
            NFock= 16  Conv=0.68D-08     -V/T= 2.0126
 <Sx>= 0.0000 <Sy>= 0.0000 <Sz>= 0.0000 <S**2>= 0.0000 S= 0.0000
 <L.S>= 0.000000000000E+00
 Annihilation of the first spin contaminant:
 S**2 before annihilation     0.0000,   after    -0.0000

 **********************************************************************

            Population analysis using the SCF Density.

 **********************************************************************

 Orbital symmetries:
 Alpha Orbitals:
       Occupied  (A') (A') (A') (A') (A') (A') (A") (A') (A")
       Virtual   (A') (A') (A') (A') (A') (A') (A") (A') (A") (A')
                 (A') (A') (A') (A") (A') (A') (A") (A') (A") (A')
                 (A') (A") (A') (A") (A') (A") (A') (A') (A') (A')
                 (A')
 Beta  Orbitals:
       Occupied  (A') (A') (A') (A') (A') (A') (A") (A') (A")
       Virtual   (A') (A') (A') (A') (A') (A') (A") (A') (A") (A')
                 (A') (A') (A') (A") (A') (A') (A") (A') (A") (A')
                 (A') (A") (A') (A") (A') (A") (A') (A') (A') (A')
                 (A')
 The electronic state is 1-A'.
 Alpha  occ. eigenvalues --  -18.84022 -18.82930  -0.88755  -0.77236  -0.41772
 Alpha  occ. eigenvalues --   -0.35643  -0.27070  -0.26542  -0.19216
 Alpha virt. eigenvalues --   -0.16613  -0.06204  -0.02651   0.60556   0.62840
 Alpha virt. eigenvalues --    0.77388   0.79166   0.81720   0.90837   0.91771
 Alpha virt. eigenvalues --    0.95393   1.12286   1.20735   1.44984   1.50915
 Alpha virt. eigenvalues --    1.57332   1.57728   1.68043   1.68222   1.74457
 Alpha virt. eigenvalues --    1.86189   2.01494   2.17026   2.17952   2.22836
 Alpha virt. eigenvalues --    2.23371   2.78332   2.95679   2.99302   3.28113
 Alpha virt. eigenvalues --    3.53451
  Beta  occ. eigenvalues --  -18.84022 -18.82930  -0.88755  -0.77236  -0.41772
  Beta  occ. eigenvalues --   -0.35643  -0.27070  -0.26542  -0.19216
  Beta virt. eigenvalues --   -0.16613  -0.06204  -0.02651   0.60556   0.62840
  Beta virt. eigenvalues --    0.77388   0.79166   0.81720   0.90837   0.91771
  Beta virt. eigenvalues --    0.95393   1.12286   1.20735   1.44984   1.50915
  Beta virt. eigenvalues --    1.57332   1.57728   1.68043   1.68222   1.74457
  Beta virt. eigenvalues --    1.86189   2.01494   2.17026   2.17952   2.22836
  Beta virt. eigenvalues --    2.23371   2.78332   2.95679   2.99302   3.28113
  Beta virt. eigenvalues --    3.53451
          Condensed to atoms (all electrons):
               1          2          3          4
     1  O    8.069393   0.080581   0.168164  -0.002294
     2  O    0.080581   8.029599  -0.000940   0.169520
     3  H    0.168164  -0.000940   0.529558   0.000456
     4  H   -0.002294   0.169520   0.000456   0.540475
          Atomic-Atomic Spin Densities.
               1          2          3          4
     1  O    0.000000   0.000000   0.000000   0.000000
     2  O    0.000000   0.000000   0.000000   0.000000
     3  H    0.000000   0.000000   0.000000   0.000000
     4  H    0.000000   0.000000   0.000000   0.000000
 Mulliken charges and spin densities:
               1          2
     1  O   -0.315844   0.000000
     2  O   -0.278760   0.000000
     3  H    0.302761   0.000000
     4  H    0.291842   0.000000
 Sum of Mulliken charges =   0.00000   0.00000
 Mulliken charges and spin densities with hydrogens summed into heavy atoms:
               1          2
     1  O   -0.013082   0.000000
     2  O    0.013082   0.000000
 Electronic spatial extent (au):  <R**2>=             88.3352
 Charge=              0.0000 electrons
 Dipole moment (field-independent basis, Debye):
    X=             -0.1609    Y=              0.1804    Z=             -0.0000  Tot=              0.2417
 Quadrupole moment (field-independent basis, Debye-Ang):
   XX=             -8.4707   YY=             -6.6200   ZZ=            -13.3015
   XY=              5.4236   XZ=             -0.0000   YZ=             -0.0000
 Traceless Quadrupole moment (field-independent basis, Debye-Ang):
   XX=              0.9934   YY=              2.8441   ZZ=             -3.8375
   XY=              5.4236   XZ=             -0.0000   YZ=             -0.0000
 Octapole moment (field-independent basis, Debye-Ang**2):
  XXX=             -0.8688  YYY=              2.1778  ZZZ=              0.0000  XYY=              0.3970
  XXY=             -0.5980  XXZ=              0.0000  XZZ=              0.0310  YZZ=              0.0196
  YYZ=             -0.0000  XYZ=             -0.0000
 Hexadecapole moment (field-independent basis, Debye-Ang**3):
 XXXX=            -13.4423 YYYY=            -51.9183 ZZZZ=             -9.8121 XXXY=              0.1390
 XXXZ=              0.0000 YYYX=              7.4412 YYYZ=              0.0000 ZZZX=              0.0000
 ZZZY=              0.0000 XXYY=             -5.6172 XXZZ=             -4.8247 YYZZ=            -15.0228
 XXYZ=             -0.0000 YYXZ=             -0.0000 ZZXY=             -2.4183
 N-N= 2.973894036106D+01 E-N=-4.172141202754D+02  KE= 1.493543540343D+02
 Symmetry A'   KE= 1.396566656208D+02
 Symmetry A"   KE= 9.697688413575D+00
 Symmetry A'   SP= 0.000000000000D+00
 Symmetry A"   SP= 0.000000000000D+00
                          Isotropic Fermi Contact Couplings
        Atom                 a.u.       MegaHertz       Gauss      10(-4) cm-1
     1  O(17)              0.00000      -0.00000      -0.00000      -0.00000
     2  O(17)              0.00000      -0.00000      -0.00000      -0.00000
     3  H(1)               0.00000       0.00000       0.00000       0.00000
     4  H(1)               0.00000       0.00000       0.00000       0.00000
 --------------------------------------------------------
       Center         ----  Spin Dipole Couplings  ----
                      3XX-RR        3YY-RR        3ZZ-RR
 --------------------------------------------------------
     1   Atom        0.000000      0.000000      0.000000
     2   Atom        0.000000      0.000000      0.000000
     3   Atom        0.000000      0.000000      0.000000
     4   Atom        0.000000      0.000000      0.000000
 --------------------------------------------------------
                        XY            XZ            YZ
 --------------------------------------------------------
     1   Atom        0.000000      0.000000      0.000000
     2   Atom        0.000000      0.000000      0.000000
     3   Atom        0.000000      0.000000      0.000000
     4   Atom        0.000000      0.000000      0.000000
 --------------------------------------------------------


 ---------------------------------------------------------------------------------
              Anisotropic Spin Dipole Couplings in Principal Axis System
 ---------------------------------------------------------------------------------

       Atom             a.u.   MegaHertz   Gauss  10(-4) cm-1        Axes

              Baa     0.0000    -0.000    -0.000    -0.000  1.0000  0.0000  0.0000
     1 O(17)  Bbb     0.0000    -0.000    -0.000    -0.000 -0.0000  1.0000  0.0000
              Bcc     0.0000    -0.000    -0.000    -0.000  0.0000  0.0000  1.0000
 
              Baa     0.0000    -0.000    -0.000    -0.000  1.0000  0.0000  0.0000
     2 O(17)  Bbb     0.0000    -0.000    -0.000    -0.000 -0.0000  1.0000  0.0000
              Bcc     0.0000    -0.000    -0.000    -0.000  0.0000  0.0000  1.0000
 
              Baa     0.0000     0.000     0.000     0.000  1.0000  0.0000  0.0000
     3 H(1)   Bbb     0.0000     0.000     0.000     0.000 -0.0000  1.0000  0.0000
              Bcc     0.0000     0.000     0.000     0.000  0.0000  0.0000  1.0000
 
              Baa     0.0000     0.000     0.000     0.000  1.0000  0.0000  0.0000
     4 H(1)   Bbb     0.0000     0.000     0.000     0.000 -0.0000  1.0000  0.0000
              Bcc     0.0000     0.000     0.000     0.000  0.0000  0.0000  1.0000
 

 ---------------------------------------------------------------------------------

 Calling FoFJK, ICntrl=      2527 FMM=F ISym2X=1 I1Cent= 0 IOpClX= 0 NMat=1 NMatS=1 NMatT=0.
 ***** Axes restored to original set *****
 -------------------------------------------------------------------
 Center     Atomic                   Forces (Hartrees/Bohr)
 Number     Number              X              Y              Z
 -------------------------------------------------------------------
      1        8          -0.033637788    0.012496810   -0.000000000
      2        8           0.026445732    0.015666352    0.000000000
      3        1           0.104495325    0.012498282    0.000000000
      4        1          -0.097303268   -0.040661445   -0.000000000
 -------------------------------------------------------------------
 Cartesian Forces:  Max     0.104495325 RMS     0.045119509

 GradGradGradGradGradGradGradGradGradGradGradGradGradGradGradGradGradGrad
 Berny optimization.
 FormGI is forming the generalized inverse of G from B-inverse, IUseBI=4.
 Internal  Forces:  Max     0.101403758 RMS     0.078207943
 Search for a local minimum.
 Step number   1 out of a maximum of   20
 All quantities printed in internal units (Hartrees-Bohrs-Radians)
 Mixed Optimization -- RFO/linear search
 Second derivative matrix not updated -- first step.
 The second derivative matrix:
                          R1        R2        R3        A1        A2
           R1           0.18172
           R2           0.00000   0.19109
           R3           0.00000   0.00000   0.16753
           A1           0.00000   0.00000   0.00000   0.16000
           A2           0.00000   0.00000   0.00000   0.00000   0.16000
           D1           0.00000   0.00000   0.00000   0.00000   0.00000
                          D1
           D1           0.00230
 ITU=  0
     Eigenvalues ---    0.00230   0.16000   0.16000   0.16753   0.18172
     Eigenvalues ---    0.19109
 RFO step:  Lambda=-1.24124003D-01 EMin= 2.30000000D-03
 Linear search not attempted -- first point.
 Maximum step size (   0.300) exceeded in Quadratic search.
    -- Step size scaled by   0.463
 Iteration  1 RMS(Cart)=  0.18494521 RMS(Int)=  0.00609787
 Iteration  2 RMS(Cart)=  0.00435701 RMS(Int)=  0.00001321
 Iteration  3 RMS(Cart)=  0.00002051 RMS(Int)=  0.00000000
 Iteration  4 RMS(Cart)=  0.00000000 RMS(Int)=  0.00000000
 ClnCor:  largest displacement from symmetrization is 1.44D-10 for atom     1.
 Variable       Old X    -DE/DX   Delta X   Delta X   Delta X     New X
                                 (Linear)    (Quad)   (Total)
    R1        3.20602  -0.05480   0.00000  -0.08289  -0.08289   3.12314
    R2        2.43779  -0.09832   0.00000  -0.14429  -0.14429   2.29350
    R3        2.53129  -0.10140   0.00000  -0.16084  -0.16084   2.37046
    A1        2.24350  -0.09151   0.00000  -0.14899  -0.14899   2.09451
    A2        2.05326  -0.07330   0.00000  -0.11935  -0.11935   1.93392
    D1        3.14159   0.00000   0.00000  -0.00000   0.00000   3.14159
         Item               Value     Threshold  Converged?
 Maximum Force            0.101404     0.000450     NO 
 RMS     Force            0.078208     0.000300     NO 
 Maximum Displacement     0.303968     0.001800     NO 
 RMS     Displacement     0.185462     0.001200     NO 
 Predicted change in Energy=-4.972425D-02
 GradGradGradGradGradGradGradGradGradGradGradGradGradGradGradGradGradGrad

                          Input orientation:                          
 ---------------------------------------------------------------------
 Center     Atomic      Atomic             Coordinates (Angstroms)
 Number     Number       Type             X           Y           Z
 ---------------------------------------------------------------------
      1          8           0       -1.641729    2.098010   -0.000000
      2          8           0       -0.173146    1.339947    0.000000
      3          1           0       -2.663147    1.442496   -0.000000
      4          1           0        0.760622    2.177547    0.000000
 ---------------------------------------------------------------------
                    Distance matrix (angstroms):
                    1          2          3          4
     1  O    0.000000
     2  O    1.652694   0.000000
     3  H    1.213670   2.492112   0.000000
     4  H    2.403667   1.254391   3.501784   0.000000
 Stoichiometry    H2O2
 Framework group  CS[SG(H2O2)]
 Deg. of freedom     5
 Full point group                 CS      NOp   2
 Largest Abelian subgroup         CS      NOp   2
 Largest concise Abelian subgroup C1      NOp   1
                         Standard orientation:                         
 ---------------------------------------------------------------------
 Center     Atomic      Atomic             Coordinates (Angstroms)
 Number     Number       Type             X           Y           Z
 ---------------------------------------------------------------------
      1          8           0        0.006755    0.817380    0.000000
      2          8           0        0.006755   -0.835314   -0.000000
      3          1           0        1.057753    1.424338    0.000000
      4          1           0       -1.165840   -1.280866   -0.000000
 ---------------------------------------------------------------------
 Rotational constants (GHZ):         239.6427321          19.4871751          18.0216940
 Standard basis: 6-31G(d,p) (6D, 7F)
 There are    30 symmetry adapted cartesian basis functions of A'  symmetry.
 There are    10 symmetry adapted cartesian basis functions of A"  symmetry.
 There are    30 symmetry adapted basis functions of A'  symmetry.
 There are    10 symmetry adapted basis functions of A"  symmetry.
    40 basis functions,    70 primitive gaussians,    40 cartesian basis functions
     9 alpha electrons        9 beta electrons
       nuclear repulsion energy        30.9662731751 Hartrees.
 NAtoms=    4 NActive=    4 NUniq=    4 SFac= 1.00D+00 NAtFMM=   60 NAOKFM=F Big=F
 Integral buffers will be    131072 words long.
 Raffenetti 2 integral format.
 Two-electron integral symmetry is turned on.
 One-electron integrals computed using PRISM.
 NBasis=    40 RedAO= T EigKep=  1.88D-02  NBF=    30    10
 NBsUse=    40 1.00D-06 EigRej= -1.00D+00 NBFU=    30    10
 Initial guess from the checkpoint file:  "/gpfs/home/gdb20/code/input_macros/temp/h2o2_pbepbe_6-31++Gdp/h2o2_pbepbe_6-31++Gdp.chk"
 B after Tr=    -0.000000    0.000000   -0.000000
         Rot=    0.999901    0.000000    0.000000    0.014073 Ang=   1.61 deg.
 Initial guess orbital symmetries:
 Alpha Orbitals:
       Occupied  (A') (A') (A') (A') (A') (A') (A") (A') (A")
       Virtual   (A') (A') (A') (A') (A') (A') (A") (A') (A") (A')
                 (A') (A') (A') (A") (A') (A') (A") (A') (A") (A')
                 (A') (A") (A') (A") (A') (A") (A') (A') (A') (A')
                 (A')
 Beta  Orbitals:
       Occupied  (A') (A') (A') (A') (A') (A') (A") (A') (A")
       Virtual   (A') (A') (A') (A') (A') (A') (A") (A') (A") (A')
                 (A') (A') (A') (A") (A') (A') (A") (A') (A") (A')
                 (A') (A") (A') (A") (A') (A") (A') (A') (A') (A')
                 (A')
 Initial guess <Sx>= 0.0000 <Sy>= 0.0000 <Sz>= 0.0000 <S**2>= 0.0000 S= 0.0000
 ExpMin= 1.61D-01 ExpMax= 5.48D+03 ExpMxC= 8.25D+02 IAcc=3 IRadAn=         5 AccDes= 0.00D+00
 Harris functional with IExCor= 1009 and IRadAn=       5 diagonalized for initial guess.
 HarFok:  IExCor= 1009 AccDes= 0.00D+00 IRadAn=         5 IDoV= 1 UseB2=F ITyADJ=14
 ICtDFT=  3500011 ScaDFX=  1.000000  1.000000  1.000000  1.000000
 FoFCou: FMM=F IPFlag=           0 FMFlag=      100000 FMFlg1=           0
         NFxFlg=           0 DoJE=T BraDBF=F KetDBF=T FulRan=T
         wScrn=  0.000000 ICntrl=       500 IOpCl=  0 I1Cent=   200000004 NGrid=           0
         NMat0=    1 NMatS0=      1 NMatT0=    0 NMatD0=    1 NMtDS0=    0 NMtDT0=    0
 Petite list used in FoFCou.
 Keep J ints in memory in symmetry-blocked form, NReq=1203603.
 Requested convergence on RMS density matrix=1.00D-08 within 128 cycles.
 Requested convergence on MAX density matrix=1.00D-06.
 Requested convergence on             energy=1.00D-06.
 No special actions if energy rises.
 Integral accuracy reduced to 1.0D-05 until final iterations.
 Initial convergence to 1.0D-05 achieved.  Increase integral accuracy.
 SCF Done:  E(UPBE-PBE) =  -151.285226483     A.U. after   13 cycles
            NFock= 13  Conv=0.19D-08     -V/T= 2.0123
 <Sx>= 0.0000 <Sy>= 0.0000 <Sz>= 0.0000 <S**2>=-0.0000 S=-0.0000
 <L.S>= 0.000000000000E+00
 Annihilation of the first spin contaminant:
 S**2 before annihilation    -0.0000,   after    -0.0000
 Calling FoFJK, ICntrl=      2527 FMM=F ISym2X=1 I1Cent= 0 IOpClX= 0 NMat=1 NMatS=1 NMatT=0.
 ***** Axes restored to original set *****
 -------------------------------------------------------------------
 Center     Atomic                   Forces (Hartrees/Bohr)
 Number     Number              X              Y              Z
 -------------------------------------------------------------------
      1        8          -0.028069315   -0.011121194   -0.000000000
      2        8           0.021496987    0.036604107    0.000000000
      3        1           0.098862189    0.023652015    0.000000000
      4        1          -0.092289862   -0.049134927   -0.000000000
 -------------------------------------------------------------------
 Cartesian Forces:  Max     0.098862189 RMS     0.044701192

 GradGradGradGradGradGradGradGradGradGradGradGradGradGradGradGradGradGrad
 Berny optimization.
 Using GEDIIS/GDIIS optimizer.
 FormGI is forming the generalized inverse of G from B-inverse, IUseBI=4.
 Internal  Forces:  Max     0.101509645 RMS     0.073267287
 Search for a local minimum.
 Step number   2 out of a maximum of   20
 All quantities printed in internal units (Hartrees-Bohrs-Radians)
 Mixed Optimization -- RFO/linear search
 Update second derivatives using D2CorX and points    1    2
 DE= -5.58D-02 DEPred=-4.97D-02 R= 1.12D+00
 TightC=F SS=  1.41D+00  RLast= 3.00D-01 DXNew= 5.0454D-01 9.0000D-01
 Trust test= 1.12D+00 RLast= 3.00D-01 DXMaxT set to 5.05D-01
 The second derivative matrix:
                          R1        R2        R3        A1        A2
           R1           0.16838
           R2          -0.02837   0.14307
           R3          -0.02631  -0.04833   0.12036
           A1          -0.03205  -0.03405  -0.04213   0.17739
           A2          -0.02695  -0.02601  -0.03380   0.02188   0.18506
           D1           0.00000  -0.00000   0.00000  -0.00000  -0.00000
                          D1
           D1           0.00230
 ITU=  1  0
 Use linear search instead of GDIIS.
 Linear search step of   0.600 exceeds DXMaxT=   0.505 but not scaled.
 Quartic linear search produced a step of  2.00000.
 Iteration  1 RMS(Cart)=  0.27727246 RMS(Int)=  0.07812345
 Iteration  2 RMS(Cart)=  0.09831926 RMS(Int)=  0.00270789
 Iteration  3 RMS(Cart)=  0.00210018 RMS(Int)=  0.00000323
 Iteration  4 RMS(Cart)=  0.00000462 RMS(Int)=  0.00000000
 Iteration  5 RMS(Cart)=  0.00000000 RMS(Int)=  0.00000000
 ClnCor:  largest displacement from symmetrization is 7.47D-11 for atom     1.
 Variable       Old X    -DE/DX   Delta X   Delta X   Delta X     New X
                                 (Linear)    (Quad)   (Total)
    R1        3.12314  -0.05716  -0.16577   0.00000  -0.16577   2.95737
    R2        2.29350  -0.09598  -0.28858   0.00000  -0.28858   2.00492
    R3        2.37046  -0.10151  -0.32168   0.00000  -0.32168   2.04878
    A1        2.09451  -0.07681  -0.29798   0.00000  -0.29798   1.79653
    A2        1.93392  -0.05938  -0.23869   0.00000  -0.23869   1.69523
    D1        3.14159  -0.00000   0.00000   0.00000   0.00000   3.14159
         Item               Value     Threshold  Converged?
 Maximum Force            0.101510     0.000450     NO 
 RMS     Force            0.073267     0.000300     NO 
 Maximum Displacement     0.617711     0.001800     NO 
 RMS     Displacement     0.369585     0.001200     NO 
 Predicted change in Energy=-9.893352D-02
 GradGradGradGradGradGradGradGradGradGradGradGradGradGradGradGradGradGrad

                          Input orientation:                          
 ---------------------------------------------------------------------
 Center     Atomic      Atomic             Coordinates (Angstroms)
 Number     Number       Type             X           Y           Z
 ---------------------------------------------------------------------
      1          8           0       -1.564408    2.176194   -0.000000
      2          8           0       -0.263098    1.306867    0.000000
      3          1           0       -2.336268    1.448274   -0.000000
      4          1           0        0.446375    2.126664    0.000000
 ---------------------------------------------------------------------
                    Distance matrix (angstroms):
                    1          2          3          4
     1  O    0.000000
     2  O    1.564972   0.000000
     3  H    1.060960   2.077987   0.000000
     4  H    2.011394   1.084168   2.864144   0.000000
 Stoichiometry    H2O2
 Framework group  CS[SG(H2O2)]
 Deg. of freedom     5
 Full point group                 CS      NOp   2
 Largest Abelian subgroup         CS      NOp   2
 Largest concise Abelian subgroup C1      NOp   1
                         Standard orientation:                         
 ---------------------------------------------------------------------
 Center     Atomic      Atomic             Coordinates (Angstroms)
 Number     Number       Type             X           Y           Z
 ---------------------------------------------------------------------
      1          8           0        0.002319    0.776769   -0.000000
      2          8           0        0.002319   -0.788203    0.000000
      3          1           0        1.036362    1.014235   -0.000000
      4          1           0       -1.073467   -0.922757    0.000000
 ---------------------------------------------------------------------
 Rotational constants (GHZ):         249.3987761          23.2892634          21.3002147
 Standard basis: 6-31G(d,p) (6D, 7F)
 There are    30 symmetry adapted cartesian basis functions of A'  symmetry.
 There are    10 symmetry adapted cartesian basis functions of A"  symmetry.
 There are    30 symmetry adapted basis functions of A'  symmetry.
 There are    10 symmetry adapted basis functions of A"  symmetry.
    40 basis functions,    70 primitive gaussians,    40 cartesian basis functions
     9 alpha electrons        9 beta electrons
       nuclear repulsion energy        33.8625456220 Hartrees.
 NAtoms=    4 NActive=    4 NUniq=    4 SFac= 1.00D+00 NAtFMM=   60 NAOKFM=F Big=F
 Integral buffers will be    131072 words long.
 Raffenetti 2 integral format.
 Two-electron integral symmetry is turned on.
 One-electron integrals computed using PRISM.
 NBasis=    40 RedAO= T EigKep=  1.42D-02  NBF=    30    10
 NBsUse=    40 1.00D-06 EigRej= -1.00D+00 NBFU=    30    10
 Initial guess from the checkpoint file:  "/gpfs/home/gdb20/code/input_macros/temp/h2o2_pbepbe_6-31++Gdp/h2o2_pbepbe_6-31++Gdp.chk"
 B after Tr=     0.000000    0.000000   -0.000000
         Rot=    0.999737   -0.000000    0.000000    0.022917 Ang=   2.63 deg.
 Initial guess orbital symmetries:
 Alpha Orbitals:
       Occupied  (A') (A') (A') (A') (A') (A') (A") (A') (A")
       Virtual   (A') (A') (A') (A') (A') (A') (A") (A') (A") (A')
                 (A') (A') (A') (A") (A") (A') (A') (A") (A') (A')
                 (A') (A") (A') (A") (A") (A') (A') (A') (A') (A')
                 (A')
 Beta  Orbitals:
       Occupied  (A') (A') (A') (A') (A') (A') (A") (A') (A")
       Virtual   (A') (A') (A') (A') (A') (A') (A") (A') (A") (A')
                 (A') (A') (A') (A") (A") (A') (A') (A") (A') (A')
                 (A') (A") (A') (A") (A") (A') (A') (A') (A') (A')
                 (A')
 Initial guess <Sx>= 0.0000 <Sy>= 0.0000 <Sz>= 0.0000 <S**2>=-0.0000 S=-0.0000
 ExpMin= 1.61D-01 ExpMax= 5.48D+03 ExpMxC= 8.25D+02 IAcc=3 IRadAn=         5 AccDes= 0.00D+00
 Harris functional with IExCor= 1009 and IRadAn=       5 diagonalized for initial guess.
 HarFok:  IExCor= 1009 AccDes= 0.00D+00 IRadAn=         5 IDoV= 1 UseB2=F ITyADJ=14
 ICtDFT=  3500011 ScaDFX=  1.000000  1.000000  1.000000  1.000000
 FoFCou: FMM=F IPFlag=           0 FMFlag=      100000 FMFlg1=           0
         NFxFlg=           0 DoJE=T BraDBF=F KetDBF=T FulRan=T
         wScrn=  0.000000 ICntrl=       500 IOpCl=  0 I1Cent=   200000004 NGrid=           0
         NMat0=    1 NMatS0=      1 NMatT0=    0 NMatD0=    1 NMtDS0=    0 NMtDT0=    0
 Petite list used in FoFCou.
 Keep J ints in memory in symmetry-blocked form, NReq=1203603.
 Requested convergence on RMS density matrix=1.00D-08 within 128 cycles.
 Requested convergence on MAX density matrix=1.00D-06.
 Requested convergence on             energy=1.00D-06.
 No special actions if energy rises.
 Integral accuracy reduced to 1.0D-05 until final iterations.
 Initial convergence to 1.0D-05 achieved.  Increase integral accuracy.
 SCF Done:  E(UPBE-PBE) =  -151.371096611     A.U. after   12 cycles
            NFock= 12  Conv=0.51D-08     -V/T= 2.0105
 <Sx>= 0.0000 <Sy>= 0.0000 <Sz>= 0.0000 <S**2>=-0.0000 S=-0.0000
 <L.S>= 0.000000000000E+00
 Annihilation of the first spin contaminant:
 S**2 before annihilation    -0.0000,   after    -0.0000
 Calling FoFJK, ICntrl=      2527 FMM=F ISym2X=1 I1Cent= 0 IOpClX= 0 NMat=1 NMatS=1 NMatT=0.
 ***** Axes restored to original set *****
 -------------------------------------------------------------------
 Center     Atomic                   Forces (Hartrees/Bohr)
 Number     Number              X              Y              Z
 -------------------------------------------------------------------
      1        8          -0.011844536   -0.039104138    0.000000000
      2        8           0.010203016    0.057420709   -0.000000000
      3        1           0.049987800    0.029020786    0.000000000
      4        1          -0.048346279   -0.047337358   -0.000000000
 -------------------------------------------------------------------
 Cartesian Forces:  Max     0.057420709 RMS     0.032901166

 GradGradGradGradGradGradGradGradGradGradGradGradGradGradGradGradGradGrad
 Berny optimization.
 Using GEDIIS/GDIIS optimizer.
 FormGI is forming the generalized inverse of G from B-inverse, IUseBI=4.
 Internal  Forces:  Max     0.067431732 RMS     0.040694447
 Search for a local minimum.
 Step number   3 out of a maximum of   20
 All quantities printed in internal units (Hartrees-Bohrs-Radians)
 Mixed Optimization -- RFO/linear search
 Update second derivatives using D2CorX and points    2    3
 The second derivative matrix:
                          R1        R2        R3        A1        A2
           R1           0.17453
           R2          -0.01188   0.17191
           R3          -0.01341  -0.02234   0.14262
           A1          -0.00417  -0.00436  -0.00882   0.17173
           A2          -0.00045   0.00228  -0.00211   0.01673   0.18038
           D1          -0.00000  -0.00000  -0.00000  -0.00000  -0.00000
                          D1
           D1           0.00230
 ITU=  0  1  0
 Use linear search instead of GDIIS.
     Eigenvalues ---    0.00230   0.12202   0.16034   0.17810   0.18577
     Eigenvalues ---    0.19494
 RFO step:  Lambda=-1.39797248D-02 EMin= 2.30000000D-03
 Quartic linear search produced a step of  0.50990.
 Iteration  1 RMS(Cart)=  0.15180974 RMS(Int)=  0.06026623
 Iteration  2 RMS(Cart)=  0.05053105 RMS(Int)=  0.00071427
 Iteration  3 RMS(Cart)=  0.00071525 RMS(Int)=  0.00000054
 Iteration  4 RMS(Cart)=  0.00000054 RMS(Int)=  0.00000000
 ClnCor:  largest displacement from symmetrization is 1.52D-09 for atom     4.
 Variable       Old X    -DE/DX   Delta X   Delta X   Delta X     New X
                                 (Linear)    (Quad)   (Total)
    R1        2.95737  -0.03732  -0.08453  -0.09173  -0.17625   2.78112
    R2        2.00492  -0.05628  -0.14715  -0.09897  -0.24611   1.75881
    R3        2.04878  -0.06743  -0.16402  -0.17371  -0.33774   1.71104
    A1        1.79653  -0.02643  -0.15194   0.09486  -0.05708   1.73945
    A2        1.69523  -0.01143  -0.12171   0.15381   0.03210   1.72733
    D1        3.14159  -0.00000   0.00000   0.00000   0.00000   3.14159
         Item               Value     Threshold  Converged?
 Maximum Force            0.067432     0.000450     NO 
 RMS     Force            0.040694     0.000300     NO 
 Maximum Displacement     0.318088     0.001800     NO 
 RMS     Displacement     0.194021     0.001200     NO 
 Predicted change in Energy=-3.138669D-02
 GradGradGradGradGradGradGradGradGradGradGradGradGradGradGradGradGradGrad

                          Input orientation:                          
 ---------------------------------------------------------------------
 Center     Atomic      Atomic             Coordinates (Angstroms)
 Number     Number       Type             X           Y           Z
 ---------------------------------------------------------------------
      1          8           0       -1.544313    2.161740   -0.000000
      2          8           0       -0.301823    1.372989    0.000000
      3          1           0       -2.167943    1.470850   -0.000000
      4          1           0        0.296680    2.052420    0.000000
 ---------------------------------------------------------------------
                    Distance matrix (angstroms):
                    1          2          3          4
     1  O    0.000000
     2  O    1.471703   0.000000
     3  H    0.930722   1.868684   0.000000
     4  H    1.844236   0.905446   2.532309   0.000000
 Stoichiometry    H2O2
 Framework group  CS[SG(H2O2)]
 Deg. of freedom     5
 Full point group                 CS      NOp   2
 Largest Abelian subgroup         CS      NOp   2
 Largest concise Abelian subgroup C1      NOp   1
                         Standard orientation:                         
 ---------------------------------------------------------------------
 Center     Atomic      Atomic             Coordinates (Angstroms)
 Number     Number       Type             X           Y           Z
 ---------------------------------------------------------------------
      1          8           0       -0.001286    0.735014    0.000000
      2          8           0       -0.001286   -0.736689    0.000000
      3          1           0        0.916232    0.891237    0.000000
      4          1           0       -0.895662   -0.877840    0.000000
 ---------------------------------------------------------------------
 Rotational constants (GHZ):         335.8988272          26.5305354          24.5884485
 Standard basis: 6-31G(d,p) (6D, 7F)
 There are    30 symmetry adapted cartesian basis functions of A'  symmetry.
 There are    10 symmetry adapted cartesian basis functions of A"  symmetry.
 There are    30 symmetry adapted basis functions of A'  symmetry.
 There are    10 symmetry adapted basis functions of A"  symmetry.
    40 basis functions,    70 primitive gaussians,    40 cartesian basis functions
     9 alpha electrons        9 beta electrons
       nuclear repulsion energy        37.0062966056 Hartrees.
 NAtoms=    4 NActive=    4 NUniq=    4 SFac= 1.00D+00 NAtFMM=   60 NAOKFM=F Big=F
 Integral buffers will be    131072 words long.
 Raffenetti 2 integral format.
 Two-electron integral symmetry is turned on.
 One-electron integrals computed using PRISM.
 NBasis=    40 RedAO= T EigKep=  1.11D-02  NBF=    30    10
 NBsUse=    40 1.00D-06 EigRej= -1.00D+00 NBFU=    30    10
 Initial guess from the checkpoint file:  "/gpfs/home/gdb20/code/input_macros/temp/h2o2_pbepbe_6-31++Gdp/h2o2_pbepbe_6-31++Gdp.chk"
 B after Tr=    -0.000000   -0.000000    0.000000
         Rot=    0.999991    0.000000   -0.000000   -0.004287 Ang=  -0.49 deg.
 Initial guess orbital symmetries:
 Alpha Orbitals:
       Occupied  (A') (A') (A') (A') (A') (A') (A') (A") (A")
       Virtual   (A') (A') (A') (A') (A') (A') (A") (A') (A') (A")
                 (A') (A') (A') (A") (A") (A') (A") (A') (A') (A')
                 (A') (A") (A') (A") (A") (A') (A') (A') (A') (A')
                 (A')
 Beta  Orbitals:
       Occupied  (A') (A') (A') (A') (A') (A') (A') (A") (A")
       Virtual   (A') (A') (A') (A') (A') (A') (A") (A') (A') (A")
                 (A') (A') (A') (A") (A") (A') (A") (A') (A') (A')
                 (A') (A") (A') (A") (A") (A') (A') (A') (A') (A')
                 (A')
 Initial guess <Sx>= 0.0000 <Sy>= 0.0000 <Sz>= 0.0000 <S**2>= 0.0000 S= 0.0000
 ExpMin= 1.61D-01 ExpMax= 5.48D+03 ExpMxC= 8.25D+02 IAcc=3 IRadAn=         5 AccDes= 0.00D+00
 Harris functional with IExCor= 1009 and IRadAn=       5 diagonalized for initial guess.
 HarFok:  IExCor= 1009 AccDes= 0.00D+00 IRadAn=         5 IDoV= 1 UseB2=F ITyADJ=14
 ICtDFT=  3500011 ScaDFX=  1.000000  1.000000  1.000000  1.000000
 FoFCou: FMM=F IPFlag=           0 FMFlag=      100000 FMFlg1=           0
         NFxFlg=           0 DoJE=T BraDBF=F KetDBF=T FulRan=T
         wScrn=  0.000000 ICntrl=       500 IOpCl=  0 I1Cent=   200000004 NGrid=           0
         NMat0=    1 NMatS0=      1 NMatT0=    0 NMatD0=    1 NMtDS0=    0 NMtDT0=    0
 Petite list used in FoFCou.
 Keep J ints in memory in symmetry-blocked form, NReq=1203603.
 Requested convergence on RMS density matrix=1.00D-08 within 128 cycles.
 Requested convergence on MAX density matrix=1.00D-06.
 Requested convergence on             energy=1.00D-06.
 No special actions if energy rises.
 Integral accuracy reduced to 1.0D-05 until final iterations.
 Initial convergence to 1.0D-05 achieved.  Increase integral accuracy.
 SCF Done:  E(UPBE-PBE) =  -151.380260415     A.U. after   12 cycles
            NFock= 12  Conv=0.47D-08     -V/T= 2.0065
 <Sx>= 0.0000 <Sy>= 0.0000 <Sz>= 0.0000 <S**2>= 0.0000 S= 0.0000
 <L.S>= 0.000000000000E+00
 Annihilation of the first spin contaminant:
 S**2 before annihilation     0.0000,   after     0.0000
 Calling FoFJK, ICntrl=      2527 FMM=F ISym2X=1 I1Cent= 0 IOpClX= 0 NMat=1 NMatS=1 NMatT=0.
 ***** Axes restored to original set *****
 -------------------------------------------------------------------
 Center     Atomic                   Forces (Hartrees/Bohr)
 Number     Number              X              Y              Z
 -------------------------------------------------------------------
      1        8           0.034437157    0.045062945   -0.000000000
      2        8          -0.058270221   -0.071288525   -0.000000000
      3        1          -0.030964343   -0.041247061   -0.000000000
      4        1           0.054797407    0.067472640   -0.000000000
 -------------------------------------------------------------------
 Cartesian Forces:  Max     0.071288525 RMS     0.042729267

 GradGradGradGradGradGradGradGradGradGradGradGradGradGradGradGradGradGrad
 Berny optimization.
 Using GEDIIS/GDIIS optimizer.
 FormGI is forming the generalized inverse of G from B-inverse, IUseBI=4.
 Internal  Forces:  Max     0.086851399 RMS     0.041402107
 Search for a local minimum.
 Step number   4 out of a maximum of   20
 All quantities printed in internal units (Hartrees-Bohrs-Radians)
 Mixed Optimization -- RFO/linear search
 Update second derivatives using D2CorX and points    3    4
 DE= -9.16D-03 DEPred=-3.14D-02 R= 2.92D-01
 Trust test= 2.92D-01 RLast= 4.58D-01 DXMaxT set to 5.05D-01
 The second derivative matrix:
                          R1        R2        R3        A1        A2
           R1           0.16942
           R2           0.00496   0.26644
           R3           0.01652   0.12126   0.35842
           A1          -0.00041   0.01292   0.01707   0.17484
           A2           0.00638   0.01547   0.01552   0.01877   0.17974
           D1           0.00000   0.00000   0.00000   0.00000   0.00000
                          D1
           D1           0.00230
 ITU=  0  0  1  0
 Use linear search instead of GDIIS.
     Eigenvalues ---    0.00230   0.15596   0.16854   0.18380   0.19372
     Eigenvalues ---    0.44683
 RFO step:  Lambda=-5.83746102D-03 EMin= 2.30000000D-03
 Quartic linear search produced a step of -0.35603.
 Iteration  1 RMS(Cart)=  0.06302615 RMS(Int)=  0.00234088
 Iteration  2 RMS(Cart)=  0.00180530 RMS(Int)=  0.00000351
 Iteration  3 RMS(Cart)=  0.00000331 RMS(Int)=  0.00000000
 Iteration  4 RMS(Cart)=  0.00000000 RMS(Int)=  0.00000000
 ClnCor:  largest displacement from symmetrization is 1.91D-09 for atom     2.
 Variable       Old X    -DE/DX   Delta X   Delta X   Delta X     New X
                                 (Linear)    (Quad)   (Total)
    R1        2.78112  -0.00089   0.06275  -0.13586  -0.07311   2.70800
    R2        1.75881   0.05137   0.08762  -0.01590   0.07173   1.83054
    R3        1.71104   0.08685   0.12024   0.05631   0.17655   1.88759
    A1        1.73945  -0.00818   0.02032  -0.09994  -0.07961   1.65983
    A2        1.72733  -0.00596  -0.01143  -0.02217  -0.03360   1.69373
    D1        3.14159   0.00000   0.00000   0.00000   0.00000   3.14159
         Item               Value     Threshold  Converged?
 Maximum Force            0.086851     0.000450     NO 
 RMS     Force            0.041402     0.000300     NO 
 Maximum Displacement     0.106975     0.001800     NO 
 RMS     Displacement     0.063351     0.001200     NO 
 Predicted change in Energy=-1.163780D-02
 GradGradGradGradGradGradGradGradGradGradGradGradGradGradGradGradGradGrad

                          Input orientation:                          
 ---------------------------------------------------------------------
 Center     Atomic      Atomic             Coordinates (Angstroms)
 Number     Number       Type             X           Y           Z
 ---------------------------------------------------------------------
      1          8           0       -1.522757    2.182111   -0.000000
      2          8           0       -0.358432    1.346722   -0.000000
      3          1           0       -2.155205    1.448389   -0.000000
      4          1           0        0.318994    2.080778   -0.000000
 ---------------------------------------------------------------------
                    Distance matrix (angstroms):
                    1          2          3          4
     1  O    0.000000
     2  O    1.433013   0.000000
     3  H    0.968679   1.799647   0.000000
     4  H    1.844536   0.998872   2.553738   0.000000
 Stoichiometry    H2O2
 Framework group  CS[SG(H2O2)]
 Deg. of freedom     5
 Full point group                 CS      NOp   2
 Largest Abelian subgroup         CS      NOp   2
 Largest concise Abelian subgroup C1      NOp   1
                         Standard orientation:                         
 ---------------------------------------------------------------------
 Center     Atomic      Atomic             Coordinates (Angstroms)
 Number     Number       Type             X           Y           Z
 ---------------------------------------------------------------------
      1          8           0        0.001472    0.718526    0.000000
      2          8           0        0.001472   -0.714487    0.000000
      3          1           0        0.966314    0.804660    0.000000
      4          1           0       -0.989862   -0.836971    0.000000
 ---------------------------------------------------------------------
 Rotational constants (GHZ):         286.3290903          28.1622975          25.6404002
 Standard basis: 6-31G(d,p) (6D, 7F)
 There are    30 symmetry adapted cartesian basis functions of A'  symmetry.
 There are    10 symmetry adapted cartesian basis functions of A"  symmetry.
 There are    30 symmetry adapted basis functions of A'  symmetry.
 There are    10 symmetry adapted basis functions of A"  symmetry.
    40 basis functions,    70 primitive gaussians,    40 cartesian basis functions
     9 alpha electrons        9 beta electrons
       nuclear repulsion energy        37.0968395915 Hartrees.
 NAtoms=    4 NActive=    4 NUniq=    4 SFac= 1.00D+00 NAtFMM=   60 NAOKFM=F Big=F
 Integral buffers will be    131072 words long.
 Raffenetti 2 integral format.
 Two-electron integral symmetry is turned on.
 One-electron integrals computed using PRISM.
 NBasis=    40 RedAO= T EigKep=  1.03D-02  NBF=    30    10
 NBsUse=    40 1.00D-06 EigRej= -1.00D+00 NBFU=    30    10
 Initial guess from the checkpoint file:  "/gpfs/home/gdb20/code/input_macros/temp/h2o2_pbepbe_6-31++Gdp/h2o2_pbepbe_6-31++Gdp.chk"
 B after Tr=     0.000000    0.000000   -0.000000
         Rot=    0.999946   -0.000000   -0.000000    0.010431 Ang=   1.20 deg.
 Initial guess orbital symmetries:
 Alpha Orbitals:
       Occupied  (A') (A') (A') (A') (A') (A') (A") (A') (A")
       Virtual   (A') (A') (A') (A') (A') (A') (A") (A') (A") (A')
                 (A') (A') (A') (A") (A") (A') (A") (A') (A') (A")
                 (A') (A') (A') (A") (A") (A') (A') (A') (A') (A')
                 (A')
 Beta  Orbitals:
       Occupied  (A') (A') (A') (A') (A') (A') (A") (A') (A")
       Virtual   (A') (A') (A') (A') (A') (A') (A") (A') (A") (A')
                 (A') (A') (A') (A") (A") (A') (A") (A') (A') (A")
                 (A') (A') (A') (A") (A") (A') (A') (A') (A') (A')
                 (A')
 Initial guess <Sx>= 0.0000 <Sy>= 0.0000 <Sz>= 0.0000 <S**2>=-0.0000 S=-0.0000
 ExpMin= 1.61D-01 ExpMax= 5.48D+03 ExpMxC= 8.25D+02 IAcc=3 IRadAn=         5 AccDes= 0.00D+00
 Harris functional with IExCor= 1009 and IRadAn=       5 diagonalized for initial guess.
 HarFok:  IExCor= 1009 AccDes= 0.00D+00 IRadAn=         5 IDoV= 1 UseB2=F ITyADJ=14
 ICtDFT=  3500011 ScaDFX=  1.000000  1.000000  1.000000  1.000000
 FoFCou: FMM=F IPFlag=           0 FMFlag=      100000 FMFlg1=           0
         NFxFlg=           0 DoJE=T BraDBF=F KetDBF=T FulRan=T
         wScrn=  0.000000 ICntrl=       500 IOpCl=  0 I1Cent=   200000004 NGrid=           0
         NMat0=    1 NMatS0=      1 NMatT0=    0 NMatD0=    1 NMtDS0=    0 NMtDT0=    0
 Petite list used in FoFCou.
 Keep J ints in memory in symmetry-blocked form, NReq=1203603.
 Requested convergence on RMS density matrix=1.00D-08 within 128 cycles.
 Requested convergence on MAX density matrix=1.00D-06.
 Requested convergence on             energy=1.00D-06.
 No special actions if energy rises.
 Integral accuracy reduced to 1.0D-05 until final iterations.
 Initial convergence to 1.0D-05 achieved.  Increase integral accuracy.
 SCF Done:  E(UPBE-PBE) =  -151.385890278     A.U. after   12 cycles
            NFock= 12  Conv=0.29D-08     -V/T= 2.0076
 <Sx>= 0.0000 <Sy>= 0.0000 <Sz>= 0.0000 <S**2>=-0.0000 S=-0.0000
 <L.S>= 0.000000000000E+00
 Annihilation of the first spin contaminant:
 S**2 before annihilation    -0.0000,   after     0.0000
 Calling FoFJK, ICntrl=      2527 FMM=F ISym2X=1 I1Cent= 0 IOpClX= 0 NMat=1 NMatS=1 NMatT=0.
 ***** Axes restored to original set *****
 -------------------------------------------------------------------
 Center     Atomic                   Forces (Hartrees/Bohr)
 Number     Number              X              Y              Z
 -------------------------------------------------------------------
      1        8          -0.020561371    0.013022535   -0.000000000
      2        8           0.041565800    0.004494764   -0.000000000
      3        1          -0.012385292   -0.000916045   -0.000000000
      4        1          -0.008619137   -0.016601255    0.000000000
 -------------------------------------------------------------------
 Cartesian Forces:  Max     0.041565800 RMS     0.015395889

 GradGradGradGradGradGradGradGradGradGradGradGradGradGradGradGradGradGrad
 Berny optimization.
 Using GEDIIS/GDIIS optimizer.
 FormGI is forming the generalized inverse of G from B-inverse, IUseBI=4.
 Internal  Forces:  Max     0.033826840 RMS     0.017757161
 Search for a local minimum.
 Step number   5 out of a maximum of   20
 All quantities printed in internal units (Hartrees-Bohrs-Radians)
 Mixed Optimization -- RFO/linear search
 Update second derivatives using D2CorX and points    3    4    5
 DE= -5.63D-03 DEPred=-1.16D-02 R= 4.84D-01
 Trust test= 4.84D-01 RLast= 2.22D-01 DXMaxT set to 5.05D-01
 The second derivative matrix:
                          R1        R2        R3        A1        A2
           R1           0.25506
           R2           0.01212   0.28059
           R3          -0.06745   0.14367   0.49038
           A1           0.04544   0.01869  -0.02991   0.19696
           A2           0.04189   0.01582  -0.02092   0.03917   0.19382
           D1          -0.00000   0.00000   0.00000  -0.00000  -0.00000
                          D1
           D1           0.00230
 ITU=  0  0  0  1  0
 Use linear search instead of GDIIS.
     Eigenvalues ---    0.00230   0.15564   0.18045   0.18210   0.32249
     Eigenvalues ---    0.57612
 RFO step:  Lambda=-3.93749648D-03 EMin= 2.30000000D-03
 Quartic linear search produced a step of -0.29701.
 Iteration  1 RMS(Cart)=  0.06225919 RMS(Int)=  0.00107152
 Iteration  2 RMS(Cart)=  0.00098782 RMS(Int)=  0.00000063
 Iteration  3 RMS(Cart)=  0.00000086 RMS(Int)=  0.00000000
 ClnCor:  largest displacement from symmetrization is 2.36D-09 for atom     3.
 Variable       Old X    -DE/DX   Delta X   Delta X   Delta X     New X
                                 (Linear)    (Quad)   (Total)
    R1        2.70800   0.03383   0.02171   0.09442   0.11614   2.82414
    R2        1.83054   0.00878  -0.02130   0.05466   0.03336   1.86389
    R3        1.88759  -0.01805  -0.05244   0.01615  -0.03629   1.85130
    A1        1.65983   0.01608   0.02365   0.03038   0.05402   1.71385
    A2        1.69373   0.00930   0.00998  -0.00021   0.00977   1.70350
    D1        3.14159   0.00000   0.00000   0.00000   0.00000   3.14159
         Item               Value     Threshold  Converged?
 Maximum Force            0.033827     0.000450     NO 
 RMS     Force            0.017757     0.000300     NO 
 Maximum Displacement     0.100452     0.001800     NO 
 RMS     Displacement     0.062828     0.001200     NO 
 Predicted change in Energy=-2.724372D-03
 GradGradGradGradGradGradGradGradGradGradGradGradGradGradGradGradGradGrad

                          Input orientation:                          
 ---------------------------------------------------------------------
 Center     Atomic      Atomic             Coordinates (Angstroms)
 Number     Number       Type             X           Y           Z
 ---------------------------------------------------------------------
      1          8           0       -1.545780    2.181961   -0.000000
      2          8           0       -0.306907    1.346118   -0.000000
      3          1           0       -2.208362    1.451322   -0.000000
      4          1           0        0.343649    2.078598   -0.000000
 ---------------------------------------------------------------------
                    Distance matrix (angstroms):
                    1          2          3          4
     1  O    0.000000
     2  O    1.494470   0.000000
     3  H    0.986331   1.904363   0.000000
     4  H    1.892255   0.979668   2.627972   0.000000
 Stoichiometry    H2O2
 Framework group  CS[SG(H2O2)]
 Deg. of freedom     5
 Full point group                 CS      NOp   2
 Largest Abelian subgroup         CS      NOp   2
 Largest concise Abelian subgroup C1      NOp   1
                         Standard orientation:                         
 ---------------------------------------------------------------------
 Center     Atomic      Atomic             Coordinates (Angstroms)
 Number     Number       Type             X           Y           Z
 ---------------------------------------------------------------------
      1          8           0       -0.000289    0.746624    0.000000
      2          8           0       -0.000289   -0.747846    0.000000
      3          1           0        0.975966    0.887246    0.000000
      4          1           0       -0.971344   -0.877470    0.000000
 ---------------------------------------------------------------------
 Rotational constants (GHZ):         290.2246103          25.7836968          23.6799577
 Standard basis: 6-31G(d,p) (6D, 7F)
 There are    30 symmetry adapted cartesian basis functions of A'  symmetry.
 There are    10 symmetry adapted cartesian basis functions of A"  symmetry.
 There are    30 symmetry adapted basis functions of A'  symmetry.
 There are    10 symmetry adapted basis functions of A"  symmetry.
    40 basis functions,    70 primitive gaussians,    40 cartesian basis functions
     9 alpha electrons        9 beta electrons
       nuclear repulsion energy        35.9367450790 Hartrees.
 NAtoms=    4 NActive=    4 NUniq=    4 SFac= 1.00D+00 NAtFMM=   60 NAOKFM=F Big=F
 Integral buffers will be    131072 words long.
 Raffenetti 2 integral format.
 Two-electron integral symmetry is turned on.
 One-electron integrals computed using PRISM.
 NBasis=    40 RedAO= T EigKep=  1.18D-02  NBF=    30    10
 NBsUse=    40 1.00D-06 EigRej= -1.00D+00 NBFU=    30    10
 Initial guess from the checkpoint file:  "/gpfs/home/gdb20/code/input_macros/temp/h2o2_pbepbe_6-31++Gdp/h2o2_pbepbe_6-31++Gdp.chk"
 B after Tr=    -0.000000    0.000000   -0.000000
         Rot=    0.999986    0.000000    0.000000   -0.005353 Ang=  -0.61 deg.
 Initial guess orbital symmetries:
 Alpha Orbitals:
       Occupied  (A') (A') (A') (A') (A') (A') (A") (A') (A")
       Virtual   (A') (A') (A') (A') (A') (A') (A") (A') (A") (A')
                 (A') (A') (A') (A") (A') (A") (A") (A') (A') (A')
                 (A") (A') (A') (A") (A") (A') (A') (A') (A') (A')
                 (A')
 Beta  Orbitals:
       Occupied  (A') (A') (A') (A') (A') (A') (A") (A') (A")
       Virtual   (A') (A') (A') (A') (A') (A') (A") (A') (A") (A')
                 (A') (A') (A') (A") (A') (A") (A") (A') (A') (A')
                 (A") (A') (A') (A") (A") (A') (A') (A') (A') (A')
                 (A')
 Initial guess <Sx>= 0.0000 <Sy>= 0.0000 <Sz>= 0.0000 <S**2>=-0.0000 S=-0.0000
 ExpMin= 1.61D-01 ExpMax= 5.48D+03 ExpMxC= 8.25D+02 IAcc=3 IRadAn=         5 AccDes= 0.00D+00
 Harris functional with IExCor= 1009 and IRadAn=       5 diagonalized for initial guess.
 HarFok:  IExCor= 1009 AccDes= 0.00D+00 IRadAn=         5 IDoV= 1 UseB2=F ITyADJ=14
 ICtDFT=  3500011 ScaDFX=  1.000000  1.000000  1.000000  1.000000
 FoFCou: FMM=F IPFlag=           0 FMFlag=      100000 FMFlg1=           0
         NFxFlg=           0 DoJE=T BraDBF=F KetDBF=T FulRan=T
         wScrn=  0.000000 ICntrl=       500 IOpCl=  0 I1Cent=   200000004 NGrid=           0
         NMat0=    1 NMatS0=      1 NMatT0=    0 NMatD0=    1 NMtDS0=    0 NMtDT0=    0
 Petite list used in FoFCou.
 Keep J ints in memory in symmetry-blocked form, NReq=1203603.
 Requested convergence on RMS density matrix=1.00D-08 within 128 cycles.
 Requested convergence on MAX density matrix=1.00D-06.
 Requested convergence on             energy=1.00D-06.
 No special actions if energy rises.
 Integral accuracy reduced to 1.0D-05 until final iterations.
 Initial convergence to 1.0D-05 achieved.  Increase integral accuracy.
 SCF Done:  E(UPBE-PBE) =  -151.387947247     A.U. after   11 cycles
            NFock= 11  Conv=0.24D-08     -V/T= 2.0083
 <Sx>= 0.0000 <Sy>= 0.0000 <Sz>= 0.0000 <S**2>=-0.0000 S=-0.0000
 <L.S>= 0.000000000000E+00
 Annihilation of the first spin contaminant:
 S**2 before annihilation    -0.0000,   after     0.0000
 Calling FoFJK, ICntrl=      2527 FMM=F ISym2X=1 I1Cent= 0 IOpClX= 0 NMat=1 NMatS=1 NMatT=0.
 ***** Axes restored to original set *****
 -------------------------------------------------------------------
 Center     Atomic                   Forces (Hartrees/Bohr)
 Number     Number              X              Y              Z
 -------------------------------------------------------------------
      1        8           0.001281997   -0.005632407   -0.000000000
      2        8          -0.005987610    0.001877732   -0.000000000
      3        1           0.006739233    0.003577212   -0.000000000
      4        1          -0.002033620    0.000177464   -0.000000000
 -------------------------------------------------------------------
 Cartesian Forces:  Max     0.006739233 RMS     0.003355663

 GradGradGradGradGradGradGradGradGradGradGradGradGradGradGradGradGradGrad
 Berny optimization.
 Using GEDIIS/GDIIS optimizer.
 FormGI is forming the generalized inverse of G from B-inverse, IUseBI=4.
 Internal  Forces:  Max     0.007798733 RMS     0.004937952
 Search for a local minimum.
 Step number   6 out of a maximum of   20
 All quantities printed in internal units (Hartrees-Bohrs-Radians)
 Mixed Optimization -- RFO/linear search
 Update second derivatives using D2CorX and points    3    4    5    6
 DE= -2.06D-03 DEPred=-2.72D-03 R= 7.55D-01
 TightC=F SS=  1.41D+00  RLast= 1.38D-01 DXNew= 8.4853D-01 4.1277D-01
 Trust test= 7.55D-01 RLast= 1.38D-01 DXMaxT set to 5.05D-01
 The second derivative matrix:
                          R1        R2        R3        A1        A2
           R1           0.29401
           R2           0.06865   0.33906
           R3          -0.03305   0.16767   0.49086
           A1           0.06382   0.04503  -0.01246   0.20534
           A2           0.05560   0.03340  -0.00988   0.04557   0.19823
           D1           0.00000   0.00000   0.00000   0.00000   0.00000
                          D1
           D1           0.00230
 ITU=  1  0  0  0  1  0
 Use linear search instead of GDIIS.
     Eigenvalues ---    0.00230   0.15525   0.18067   0.18408   0.40689
     Eigenvalues ---    0.60061
 RFO step:  Lambda=-6.68354135D-05 EMin= 2.30000000D-03
 Quartic linear search produced a step of -0.21539.
 Iteration  1 RMS(Cart)=  0.01647302 RMS(Int)=  0.00006407
 Iteration  2 RMS(Cart)=  0.00005667 RMS(Int)=  0.00000000
 Iteration  3 RMS(Cart)=  0.00000000 RMS(Int)=  0.00000000
 ClnCor:  largest displacement from symmetrization is 2.70D-15 for atom     4.
 Variable       Old X    -DE/DX   Delta X   Delta X   Delta X     New X
                                 (Linear)    (Quad)   (Total)
    R1        2.82414  -0.00780  -0.02501   0.00278  -0.02223   2.80191
    R2        1.86389  -0.00718  -0.00718  -0.00894  -0.01613   1.84777
    R3        1.85130  -0.00122   0.00782  -0.00607   0.00174   1.85305
    A1        1.71385  -0.00483  -0.01164  -0.00287  -0.01450   1.69935
    A2        1.70350  -0.00303  -0.00210  -0.00125  -0.00336   1.70014
    D1        3.14159  -0.00000   0.00000   0.00000   0.00000   3.14159
         Item               Value     Threshold  Converged?
 Maximum Force            0.007799     0.000450     NO 
 RMS     Force            0.004938     0.000300     NO 
 Maximum Displacement     0.029930     0.001800     NO 
 RMS     Displacement     0.016443     0.001200     NO 
 Predicted change in Energy=-1.661245D-04
 GradGradGradGradGradGradGradGradGradGradGradGradGradGradGradGradGradGrad

                          Input orientation:                          
 ---------------------------------------------------------------------
 Center     Atomic      Atomic             Coordinates (Angstroms)
 Number     Number       Type             X           Y           Z
 ---------------------------------------------------------------------
      1          8           0       -1.542241    2.182097   -0.000000
      2          8           0       -0.317678    1.346117   -0.000000
      3          1           0       -2.192523    1.451880   -0.000000
      4          1           0        0.335042    2.077905   -0.000000
 ---------------------------------------------------------------------
                    Distance matrix (angstroms):
                    1          2          3          4
     1  O    0.000000
     2  O    1.482706   0.000000
     3  H    0.977795   1.877826   0.000000
     4  H    1.880173   0.980591   2.603939   0.000000
 Stoichiometry    H2O2
 Framework group  CS[SG(H2O2)]
 Deg. of freedom     5
 Full point group                 CS      NOp   2
 Largest Abelian subgroup         CS      NOp   2
 Largest concise Abelian subgroup C1      NOp   1
                         Standard orientation:                         
 ---------------------------------------------------------------------
 Center     Atomic      Atomic             Coordinates (Angstroms)
 Number     Number       Type             X           Y           Z
 ---------------------------------------------------------------------
      1          8           0        0.000148    0.741415    0.000000
      2          8           0        0.000148   -0.741290    0.000000
      3          1           0        0.969875    0.866771    0.000000
      4          1           0       -0.972250   -0.867774    0.000000
 ---------------------------------------------------------------------
 Rotational constants (GHZ):         291.3309768          26.2346568          24.0673656
 Standard basis: 6-31G(d,p) (6D, 7F)
 There are    30 symmetry adapted cartesian basis functions of A'  symmetry.
 There are    10 symmetry adapted cartesian basis functions of A"  symmetry.
 There are    30 symmetry adapted basis functions of A'  symmetry.
 There are    10 symmetry adapted basis functions of A"  symmetry.
    40 basis functions,    70 primitive gaussians,    40 cartesian basis functions
     9 alpha electrons        9 beta electrons
       nuclear repulsion energy        36.1976064286 Hartrees.
 NAtoms=    4 NActive=    4 NUniq=    4 SFac= 1.00D+00 NAtFMM=   60 NAOKFM=F Big=F
 Integral buffers will be    131072 words long.
 Raffenetti 2 integral format.
 Two-electron integral symmetry is turned on.
 One-electron integrals computed using PRISM.
 NBasis=    40 RedAO= T EigKep=  1.15D-02  NBF=    30    10
 NBsUse=    40 1.00D-06 EigRej= -1.00D+00 NBFU=    30    10
 Initial guess from the checkpoint file:  "/gpfs/home/gdb20/code/input_macros/temp/h2o2_pbepbe_6-31++Gdp/h2o2_pbepbe_6-31++Gdp.chk"
 B after Tr=    -0.000000    0.000000    0.000000
         Rot=    0.999999    0.000000    0.000000    0.001009 Ang=   0.12 deg.
 Initial guess orbital symmetries:
 Alpha Orbitals:
       Occupied  (A') (A') (A') (A') (A') (A') (A") (A') (A")
       Virtual   (A') (A') (A') (A') (A') (A') (A") (A') (A") (A')
                 (A') (A') (A') (A") (A") (A') (A") (A') (A') (A')
                 (A") (A') (A') (A") (A") (A') (A') (A') (A') (A')
                 (A')
 Beta  Orbitals:
       Occupied  (A') (A') (A') (A') (A') (A') (A") (A') (A")
       Virtual   (A') (A') (A') (A') (A') (A') (A") (A') (A") (A')
                 (A') (A') (A') (A") (A") (A') (A") (A') (A') (A')
                 (A") (A') (A') (A") (A") (A') (A') (A') (A') (A')
                 (A')
 Initial guess <Sx>= 0.0000 <Sy>= 0.0000 <Sz>= 0.0000 <S**2>=-0.0000 S=-0.0000
 ExpMin= 1.61D-01 ExpMax= 5.48D+03 ExpMxC= 8.25D+02 IAcc=3 IRadAn=         5 AccDes= 0.00D+00
 Harris functional with IExCor= 1009 and IRadAn=       5 diagonalized for initial guess.
 HarFok:  IExCor= 1009 AccDes= 0.00D+00 IRadAn=         5 IDoV= 1 UseB2=F ITyADJ=14
 ICtDFT=  3500011 ScaDFX=  1.000000  1.000000  1.000000  1.000000
 FoFCou: FMM=F IPFlag=           0 FMFlag=      100000 FMFlg1=           0
         NFxFlg=           0 DoJE=T BraDBF=F KetDBF=T FulRan=T
         wScrn=  0.000000 ICntrl=       500 IOpCl=  0 I1Cent=   200000004 NGrid=           0
         NMat0=    1 NMatS0=      1 NMatT0=    0 NMatD0=    1 NMtDS0=    0 NMtDT0=    0
 Petite list used in FoFCou.
 Keep J ints in memory in symmetry-blocked form, NReq=1203603.
 Requested convergence on RMS density matrix=1.00D-08 within 128 cycles.
 Requested convergence on MAX density matrix=1.00D-06.
 Requested convergence on             energy=1.00D-06.
 No special actions if energy rises.
 Integral accuracy reduced to 1.0D-05 until final iterations.
 Initial convergence to 1.0D-05 achieved.  Increase integral accuracy.
 SCF Done:  E(UPBE-PBE) =  -151.388137369     A.U. after   11 cycles
            NFock= 11  Conv=0.17D-08     -V/T= 2.0081
 <Sx>= 0.0000 <Sy>= 0.0000 <Sz>= 0.0000 <S**2>=-0.0000 S=-0.0000
 <L.S>= 0.000000000000E+00
 Annihilation of the first spin contaminant:
 S**2 before annihilation    -0.0000,   after     0.0000
 Calling FoFJK, ICntrl=      2527 FMM=F ISym2X=1 I1Cent= 0 IOpClX= 0 NMat=1 NMatS=1 NMatT=0.
 ***** Axes restored to original set *****
 -------------------------------------------------------------------
 Center     Atomic                   Forces (Hartrees/Bohr)
 Number     Number              X              Y              Z
 -------------------------------------------------------------------
      1        8           0.000841580    0.000100972   -0.000000000
      2        8           0.000923477    0.001762565   -0.000000000
      3        1          -0.000173525   -0.000340547    0.000000000
      4        1          -0.001591533   -0.001522990   -0.000000000
 -------------------------------------------------------------------
 Cartesian Forces:  Max     0.001762565 RMS     0.000897982

 GradGradGradGradGradGradGradGradGradGradGradGradGradGradGradGradGradGrad
 Berny optimization.
 Using GEDIIS/GDIIS optimizer.
 FormGI is forming the generalized inverse of G from B-inverse, IUseBI=4.
 Internal  Forces:  Max     0.002195989 RMS     0.000963203
 Search for a local minimum.
 Step number   7 out of a maximum of   20
 All quantities printed in internal units (Hartrees-Bohrs-Radians)
 Mixed Optimization -- En-DIIS/RFO-DIIS
 Update second derivatives using D2CorX and points    3    4    5    6    7
 DE= -1.90D-04 DEPred=-1.66D-04 R= 1.14D+00
 TightC=F SS=  1.41D+00  RLast= 3.13D-02 DXNew= 8.4853D-01 9.3867D-02
 Trust test= 1.14D+00 RLast= 3.13D-02 DXMaxT set to 5.05D-01
 The second derivative matrix:
                          R1        R2        R3        A1        A2
           R1           0.24244
           R2           0.05534   0.35754
           R3          -0.06695   0.12135   0.47721
           A1           0.03967   0.04483  -0.03679   0.19624
           A2           0.04100   0.03312  -0.02436   0.03935   0.19425
           D1           0.00000   0.00000   0.00000   0.00000   0.00000
                          D1
           D1           0.00230
 ITU=  1  1  0  0  0  1  0
 Use linear search instead of GDIIS.
     Eigenvalues ---    0.00230   0.15261   0.17814   0.18585   0.39493
     Eigenvalues ---    0.55615
 RFO step:  Lambda=-2.05078573D-05 EMin= 2.30000000D-03
 Quartic linear search produced a step of  0.02473.
 Iteration  1 RMS(Cart)=  0.00392117 RMS(Int)=  0.00000204
 Iteration  2 RMS(Cart)=  0.00000203 RMS(Int)=  0.00000000
 Iteration  3 RMS(Cart)=  0.00000000 RMS(Int)=  0.00000000
 ClnCor:  largest displacement from symmetrization is 3.50D-10 for atom     3.
 Variable       Old X    -DE/DX   Delta X   Delta X   Delta X     New X
                                 (Linear)    (Quad)   (Total)
    R1        2.80191  -0.00069  -0.00055  -0.00453  -0.00508   2.79683
    R2        1.84777   0.00037  -0.00040   0.00489   0.00450   1.85226
    R3        1.85305  -0.00220   0.00004  -0.00673  -0.00669   1.84636
    A1        1.69935  -0.00018  -0.00036  -0.00142  -0.00178   1.69758
    A2        1.70014  -0.00032  -0.00008  -0.00174  -0.00183   1.69832
    D1        3.14159   0.00000   0.00000   0.00000   0.00000   3.14159
         Item               Value     Threshold  Converged?
 Maximum Force            0.002196     0.000450     NO 
 RMS     Force            0.000963     0.000300     NO 
 Maximum Displacement     0.006461     0.001800     NO 
 RMS     Displacement     0.003920     0.001200     NO 
 Predicted change in Energy=-1.038198D-05
 GradGradGradGradGradGradGradGradGradGradGradGradGradGradGradGradGradGrad

                          Input orientation:                          
 ---------------------------------------------------------------------
 Center     Atomic      Atomic             Coordinates (Angstroms)
 Number     Number       Type             X           Y           Z
 ---------------------------------------------------------------------
      1          8           0       -1.539621    2.183192   -0.000000
      2          8           0       -0.318311    1.347216   -0.000000
      3          1           0       -2.191091    1.450847   -0.000000
      4          1           0        0.331623    2.076746   -0.000000
 ---------------------------------------------------------------------
                    Distance matrix (angstroms):
                    1          2          3          4
     1  O    0.000000
     2  O    1.480019   0.000000
     3  H    0.980174   1.875645   0.000000
     4  H    1.874270   0.977051   2.599199   0.000000
 Stoichiometry    H2O2
 Framework group  CS[SG(H2O2)]
 Deg. of freedom     5
 Full point group                 CS      NOp   2
 Largest Abelian subgroup         CS      NOp   2
 Largest concise Abelian subgroup C1      NOp   1
                         Standard orientation:                         
 ---------------------------------------------------------------------
 Center     Atomic      Atomic             Coordinates (Angstroms)
 Number     Number       Type             X           Y           Z
 ---------------------------------------------------------------------
      1          8           0       -0.000177    0.740027    0.000000
      2          8           0       -0.000177   -0.739991    0.000000
      3          1           0        0.972131    0.863960    0.000000
      4          1           0       -0.969295   -0.864248    0.000000
 ---------------------------------------------------------------------
 Rotational constants (GHZ):         291.4558931          26.3376754          24.1548963
 Standard basis: 6-31G(d,p) (6D, 7F)
 There are    30 symmetry adapted cartesian basis functions of A'  symmetry.
 There are    10 symmetry adapted cartesian basis functions of A"  symmetry.
 There are    30 symmetry adapted basis functions of A'  symmetry.
 There are    10 symmetry adapted basis functions of A"  symmetry.
    40 basis functions,    70 primitive gaussians,    40 cartesian basis functions
     9 alpha electrons        9 beta electrons
       nuclear repulsion energy        36.2542904986 Hartrees.
 NAtoms=    4 NActive=    4 NUniq=    4 SFac= 1.00D+00 NAtFMM=   60 NAOKFM=F Big=F
 Integral buffers will be    131072 words long.
 Raffenetti 2 integral format.
 Two-electron integral symmetry is turned on.
 One-electron integrals computed using PRISM.
 NBasis=    40 RedAO= T EigKep=  1.14D-02  NBF=    30    10
 NBsUse=    40 1.00D-06 EigRej= -1.00D+00 NBFU=    30    10
 Initial guess from the checkpoint file:  "/gpfs/home/gdb20/code/input_macros/temp/h2o2_pbepbe_6-31++Gdp/h2o2_pbepbe_6-31++Gdp.chk"
 B after Tr=    -0.000000   -0.000000   -0.000000
         Rot=    1.000000   -0.000000   -0.000000    0.000228 Ang=   0.03 deg.
 Initial guess orbital symmetries:
 Alpha Orbitals:
       Occupied  (A') (A') (A') (A') (A') (A') (A") (A') (A")
       Virtual   (A') (A') (A') (A') (A') (A') (A") (A') (A") (A')
                 (A') (A') (A') (A") (A") (A') (A") (A') (A') (A')
                 (A") (A') (A') (A") (A") (A') (A') (A') (A') (A')
                 (A')
 Beta  Orbitals:
       Occupied  (A') (A') (A') (A') (A') (A') (A") (A') (A")
       Virtual   (A') (A') (A') (A') (A') (A') (A") (A') (A") (A')
                 (A') (A') (A') (A") (A") (A') (A") (A') (A') (A')
                 (A") (A') (A') (A") (A") (A') (A') (A') (A') (A')
                 (A')
 Initial guess <Sx>= 0.0000 <Sy>= 0.0000 <Sz>= 0.0000 <S**2>=-0.0000 S=-0.0000
 Keep J ints in memory in symmetry-blocked form, NReq=1203603.
 Requested convergence on RMS density matrix=1.00D-08 within 128 cycles.
 Requested convergence on MAX density matrix=1.00D-06.
 Requested convergence on             energy=1.00D-06.
 No special actions if energy rises.
 SCF Done:  E(UPBE-PBE) =  -151.388136682     A.U. after    8 cycles
            NFock=  8  Conv=0.15D-08     -V/T= 2.0081
 <Sx>= 0.0000 <Sy>= 0.0000 <Sz>= 0.0000 <S**2>=-0.0000 S=-0.0000
 <L.S>= 0.000000000000E+00
 Annihilation of the first spin contaminant:
 S**2 before annihilation    -0.0000,   after     0.0000
 Calling FoFJK, ICntrl=      2527 FMM=F ISym2X=1 I1Cent= 0 IOpClX= 0 NMat=1 NMatS=1 NMatT=0.
 ***** Axes restored to original set *****
 -------------------------------------------------------------------
 Center     Atomic                   Forces (Hartrees/Bohr)
 Number     Number              X              Y              Z
 -------------------------------------------------------------------
      1        8          -0.002018466   -0.001361735   -0.000000000
      2        8           0.000157364   -0.000833174    0.000000000
      3        1           0.000978632    0.001598144   -0.000000000
      4        1           0.000882470    0.000596764   -0.000000000
[...]
     3  H    0.261868  -0.020943   0.417454   0.003548
     4  H   -0.020949   0.261862   0.003548   0.417459
          Atomic-Atomic Spin Densities.
               1          2          3          4
     1  O    0.000000   0.000000   0.000000   0.000000
     2  O    0.000000   0.000000   0.000000   0.000000
     3  H    0.000000   0.000000   0.000000   0.000000
     4  H    0.000000   0.000000   0.000000   0.000000
 Mulliken charges and spin densities:
               1          2
     1  O   -0.338085   0.000000
     2  O   -0.338067   0.000000
     3  H    0.338073   0.000000
     4  H    0.338080   0.000000
 Sum of Mulliken charges =  -0.00000   0.00000
 Mulliken charges and spin densities with hydrogens summed into heavy atoms:
               1          2
     1  O   -0.000012   0.000000
     2  O    0.000012   0.000000
 APT charges:
               1
     1  O   -0.254821
     2  O   -0.254797
     3  H    0.254809
     4  H    0.254809
 Sum of APT charges =   0.00000
 APT charges with hydrogens summed into heavy atoms:
               1
     1  O   -0.000011
     2  O    0.000011
 Electronic spatial extent (au):  <R**2>=             66.9746
 Charge=             -0.0000 electrons
 Dipole moment (field-independent basis, Debye):
    X=             -0.0000    Y=              0.0002    Z=             -0.0000  Tot=              0.0002
 Quadrupole moment (field-independent basis, Debye-Ang):
   XX=             -7.9573   YY=            -11.1584   ZZ=            -12.5565
   XY=              3.3445   XZ=              0.0000   YZ=             -0.0000
 Traceless Quadrupole moment (field-independent basis, Debye-Ang):
   XX=              2.6001   YY=             -0.6010   ZZ=             -1.9991
   XY=              3.3445   XZ=              0.0000   YZ=             -0.0000
 Octapole moment (field-independent basis, Debye-Ang**2):
  XXX=             -0.0002  YYY=              0.0007  ZZZ=             -0.0000  XYY=              0.0005
  XXY=              0.0001  XXZ=             -0.0000  XZZ=              0.0000  YZZ=              0.0000
  YYZ=             -0.0000  XYZ=             -0.0000
 Hexadecapole moment (field-independent basis, Debye-Ang**3):
 XXXX=             -8.7720 YYYY=            -44.0457 ZZZZ=             -8.8531 XXXY=              1.0736
 XXXZ=              0.0000 YYYX=              0.7721 YYYZ=             -0.0000 ZZZX=             -0.0000
 ZZZY=             -0.0000 XXYY=             -7.4228 XXZZ=             -3.6178 YYZZ=            -10.0678
 XXYZ=             -0.0000 YYXZ=              0.0000 ZZXY=             -0.6827
 N-N= 3.623172449067D+01 E-N=-4.305119801474D+02  KE= 1.501768534898D+02
 Symmetry A'   KE= 1.404943130323D+02
 Symmetry A"   KE= 9.682540457451D+00
 Symmetry A'   SP= 0.000000000000D+00
 Symmetry A"   SP= 0.000000000000D+00
  Exact polarizability:      11.538       2.379      13.894       0.000       0.000       4.865
 Approx polarizability:      17.414       2.451      27.267       0.000       0.000       6.163
                          Isotropic Fermi Contact Couplings
        Atom                 a.u.       MegaHertz       Gauss      10(-4) cm-1
     1  O(17)              0.00000      -0.00000      -0.00000      -0.00000
     2  O(17)              0.00000      -0.00000      -0.00000      -0.00000
     3  H(1)               0.00000       0.00000       0.00000       0.00000
     4  H(1)               0.00000       0.00000       0.00000       0.00000
 --------------------------------------------------------
       Center         ----  Spin Dipole Couplings  ----
                      3XX-RR        3YY-RR        3ZZ-RR
 --------------------------------------------------------
     1   Atom        0.000000      0.000000      0.000000
     2   Atom        0.000000      0.000000      0.000000
     3   Atom        0.000000      0.000000      0.000000
     4   Atom        0.000000      0.000000      0.000000
 --------------------------------------------------------
                        XY            XZ            YZ
 --------------------------------------------------------
     1   Atom        0.000000      0.000000      0.000000
     2   Atom        0.000000      0.000000      0.000000
     3   Atom        0.000000      0.000000      0.000000
     4   Atom        0.000000      0.000000      0.000000
 --------------------------------------------------------


 ---------------------------------------------------------------------------------
              Anisotropic Spin Dipole Couplings in Principal Axis System
 ---------------------------------------------------------------------------------

       Atom             a.u.   MegaHertz   Gauss  10(-4) cm-1        Axes

              Baa     0.0000    -0.000    -0.000    -0.000  1.0000  0.0000  0.0000
     1 O(17)  Bbb     0.0000    -0.000    -0.000    -0.000 -0.0000  1.0000  0.0000
              Bcc     0.0000    -0.000    -0.000    -0.000  0.0000  0.0000  1.0000
 
              Baa     0.0000    -0.000    -0.000    -0.000  1.0000  0.0000  0.0000
     2 O(17)  Bbb     0.0000    -0.000    -0.000    -0.000 -0.0000  1.0000  0.0000
              Bcc     0.0000    -0.000    -0.000    -0.000  0.0000  0.0000  1.0000
 
              Baa     0.0000     0.000     0.000     0.000  1.0000  0.0000  0.0000
     3 H(1)   Bbb     0.0000     0.000     0.000     0.000 -0.0000  1.0000  0.0000
              Bcc     0.0000     0.000     0.000     0.000  0.0000  0.0000  1.0000
 
              Baa     0.0000     0.000     0.000     0.000  1.0000  0.0000  0.0000
     4 H(1)   Bbb     0.0000     0.000     0.000     0.000 -0.0000  1.0000  0.0000
              Bcc     0.0000     0.000     0.000     0.000  0.0000  0.0000  1.0000
 

 ---------------------------------------------------------------------------------

 Calling FoFJK, ICntrl=    100527 FMM=F ISym2X=1 I1Cent= 0 IOpClX= 0 NMat=1 NMatS=1 NMatT=0.
 Full mass-weighted force constant matrix:
 Low frequencies --- -258.4010   -6.2527   -5.7033   -0.0023   -0.0016   -0.0013
 Low frequencies ---   15.6013  917.2279 1206.6704
 ******    1 imaginary frequencies (negative Signs) ****** 
 Diagonal vibrational polarizability:
        0.0745044       2.5268300     111.5364878
 Harmonic frequencies (cm**-1), IR intensities (KM/Mole), Raman scattering
 activities (A**4/AMU), depolarization ratios for plane and unpolarized
 incident light, reduced masses (AMU), force constants (mDyne/A),
 and normal coordinates:
                      1                      2                      3
                     A"                     A'                     A'
 Frequencies --   -258.3991               917.2279              1206.6704
 Red. masses --      1.0671                15.3572                 1.0671
 Frc consts  --      0.0420                 7.6123                 0.9154
 IR Inten    --    276.7362                 0.0000               135.4232
  Atom  AN      X      Y      Z        X      Y      Z        X      Y      Z
     1   8     0.00   0.00  -0.04    -0.00  -0.69   0.00     0.01  -0.04  -0.00
     2   8     0.00   0.00  -0.04     0.00   0.69   0.00     0.01  -0.04  -0.00
     3   1    -0.00  -0.00   0.71    -0.11  -0.10  -0.00    -0.09   0.70   0.00
     4   1    -0.00  -0.00   0.71     0.11   0.10  -0.00    -0.09   0.70   0.00
                      4                      5                      6
                     A'                     A'                     A'
 Frequencies --   1495.5213              3682.0849              3692.0915
 Red. masses --      1.1165                 1.0695                 1.0671
 Frc consts  --      1.4713                 8.5433                 8.5703
 IR Inten    --      0.0000                 0.0220                49.8228
  Atom  AN      X      Y      Z        X      Y      Z        X      Y      Z
     1   8    -0.06   0.01  -0.00     0.04   0.01   0.00    -0.05  -0.01  -0.00
     2   8     0.06  -0.01  -0.00    -0.05  -0.01   0.00    -0.04  -0.01  -0.00
     3   1     0.02  -0.70   0.00    -0.69  -0.08  -0.00     0.71   0.09   0.00
     4   1    -0.02   0.70   0.00     0.72   0.09  -0.00     0.68   0.09   0.00

 -------------------
 - Thermochemistry -
 -------------------
 Temperature   298.150 Kelvin.  Pressure   1.00000 Atm.
 Atom     1 has atomic number  8 and mass  15.99491
 Atom     2 has atomic number  8 and mass  15.99491
 Atom     3 has atomic number  1 and mass   1.00783
 Atom     4 has atomic number  1 and mass   1.00783
 Molecular mass:    34.00548 amu.
 Principal axes and moments of inertia in atomic units:
                           1         2         3
     Eigenvalues --     6.18295  68.66617  74.84912
           X            0.09726   0.99526   0.00000
           Y            0.99526  -0.09726   0.00000
           Z           -0.00000  -0.00000   1.00000
 This molecule is an asymmetric top.
 Rotational symmetry number  1.
 Rotational temperatures (Kelvin)     14.00851     1.26138     1.15718
 Rotational constants (GHZ):         291.89007    26.28283    24.11172
    1 imaginary frequencies ignored.
 Zero-point vibrational energy      65756.3 (Joules/Mol)
                                   15.71613 (Kcal/Mol)
 Vibrational temperatures:   1319.69  1736.13  2151.72  5297.70  5312.10
          (Kelvin)
 
 Zero-point correction=                           0.025045 (Hartree/Particle)
 Thermal correction to Energy=                    0.027950
 Thermal correction to Enthalpy=                  0.028894
 Thermal correction to Gibbs Free Energy=         0.002862
 Sum of electronic and zero-point Energies=           -151.363098
 Sum of electronic and thermal Energies=              -151.360194
 Sum of electronic and thermal Enthalpies=            -151.359250
 Sum of electronic and thermal Free Energies=         -151.385281
 
                     E (Thermal)             CV                S
                      KCal/Mol        Cal/Mol-Kelvin    Cal/Mol-Kelvin
 Total                   17.539              6.715             54.788
 Electronic               0.000              0.000              0.000
 Translational            0.889              2.981             36.503
 Rotational               0.889              2.981             18.103
 Vibrational             15.761              0.754              0.183
                       Q            Log10(Q)             Ln(Q)
 Total Bot       0.482513D-01         -1.316491         -3.031332
 Total V=0       0.159778D+11         10.203516         23.494465
 Vib (Bot)       0.306778D-11        -11.513176        -26.510068
 Vib (V=0)       0.101585D+01          0.006831          0.015729
 Electronic      0.100000D+01          0.000000          0.000000
 Translational   0.779430D+07          6.891777         15.868904
 Rotational      0.201794D+04          3.304908          7.609832
 ***** Axes restored to original set *****
 -------------------------------------------------------------------
 Center     Atomic                   Forces (Hartrees/Bohr)
 Number     Number              X              Y              Z
 -------------------------------------------------------------------
      1        8          -0.000033568    0.000032793   -0.000000000
      2        8           0.000041500    0.000000483    0.000000000
      3        1           0.000002829   -0.000010428    0.000000000
      4        1          -0.000010761   -0.000022849   -0.000000000
 -------------------------------------------------------------------
 Cartesian Forces:  Max     0.000041500 RMS     0.000019747
 FormGI is forming the generalized inverse of G from B-inverse, IUseBI=4.

 GradGradGradGradGradGradGradGradGradGradGradGradGradGradGradGradGradGrad
 Berny optimization.
 Internal  Forces:  Max     0.000038033 RMS     0.000020508
 Search for a local minimum.
 Step number   1 out of a maximum of    2
 All quantities printed in internal units (Hartrees-Bohrs-Radians)
 Second derivative matrix not updated -- analytic derivatives used.
 The second derivative matrix:
                          R1        R2        R3        A1        A2
           R1           0.28740
           R2          -0.00641   0.48757
           R3          -0.00641  -0.00157   0.48746
           A1           0.06435   0.00240   0.00188   0.21880
           A2           0.06438   0.00188   0.00240   0.04032   0.21883
           D1          -0.00000   0.00000  -0.00000  -0.00000  -0.00000
                          D1
           D1          -0.00403
 ITU=  0
     Eigenvalues ---   -0.00403   0.17849   0.18088   0.36524   0.48636
     Eigenvalues ---    0.48909
 Eigenvalue     1 is  -4.03D-03 should be greater than     0.000000 Eigenvector:
                          D1        R3        R2        A1        A2
   1                    1.00000   0.00000  -0.00000   0.00000  -0.00000
                          R1
   1                   -0.00000
 Angle between quadratic step and forces=  22.56 degrees.
 Linear search not attempted -- first point.
 Iteration  1 RMS(Cart)=  0.00007817 RMS(Int)=  0.00000001
 Iteration  2 RMS(Cart)=  0.00000001 RMS(Int)=  0.00000000
 ClnCor:  largest displacement from symmetrization is 1.57D-15 for atom     4.
 Variable       Old X    -DE/DX   Delta X   Delta X   Delta X     New X
                                 (Linear)    (Quad)   (Total)
    R1        2.79943   0.00004   0.00000   0.00015   0.00015   2.79958
    R2        1.84847   0.00001   0.00000   0.00001   0.00001   1.84848
    R3        1.84853  -0.00002   0.00000  -0.00005  -0.00005   1.84848
    A1        1.69951  -0.00002   0.00000  -0.00013  -0.00013   1.69939
    A2        1.69935   0.00001   0.00000   0.00004   0.00004   1.69939
    D1        3.14159   0.00000   0.00000  -0.00000   0.00000   3.14159
         Item               Value     Threshold  Converged?
 Maximum Force            0.000038     0.000450     YES
 RMS     Force            0.000021     0.000300     YES
 Maximum Displacement     0.000110     0.001800     YES
 RMS     Displacement     0.000078     0.001200     YES
 Predicted change in Energy=-4.823840D-09
 Optimization completed.
    -- Stationary point found.
                           ----------------------------
                           !   Optimized Parameters   !
                           ! (Angstroms and Degrees)  !
 --------------------------                            --------------------------
 ! Name  Definition              Value          Derivative Info.                !
 --------------------------------------------------------------------------------
 ! R1    R(1,2)                  1.4814         -DE/DX =    0.0                 !
 ! R2    R(1,3)                  0.9782         -DE/DX =    0.0                 !
 ! R3    R(2,4)                  0.9782         -DE/DX =    0.0                 !
 ! A1    A(2,1,3)               97.375          -DE/DX =    0.0                 !
 ! A2    A(1,2,4)               97.3654         -DE/DX =    0.0                 !
 ! D1    D(3,1,2,4)            180.0            -DE/DX =    0.0                 !
 --------------------------------------------------------------------------------
 GradGradGradGradGradGradGradGradGradGradGradGradGradGradGradGradGradGrad


 ----------------------------------------------------------------------

 Electric dipole moment (input orientation):
 (Debye = 10**-18 statcoulomb cm , SI units = C m)
                  (au)            (Debye)         (10**-30 SI)
   Tot        0.752391D-04      0.191239D-03      0.637904D-03
   x         -0.579355D-04     -0.147257D-03     -0.491198D-03
   y          0.480042D-04      0.122014D-03      0.406996D-03
   z          0.000000D+00      0.000000D+00      0.000000D+00

 Dipole polarizability, Alpha (input orientation).
 (esu units = cm**3 , SI units = C**2 m**2 J**-1)
 Alpha(0;0):
               (au)            (10**-24 esu)      (10**-40 SI)
   iso        0.100989D+02      0.149651D+01      0.166509D+01
   aniso      0.909841D+01      0.134825D+01      0.150013D+01
   xx         0.153606D+02      0.227620D+01      0.253262D+01
   yx        -0.231279D+00     -0.342720D-01     -0.381327D-01
   yy         0.100712D+02      0.149241D+01      0.166052D+01
   zx         0.000000D+00      0.000000D+00      0.000000D+00
   zy         0.000000D+00      0.000000D+00      0.000000D+00
   zz         0.486495D+01      0.720911D+00      0.802121D+00

 ----------------------------------------------------------------------

 Dipole orientation:
     8          0.84047116          1.01435255          4.87336592
     8          1.00602005          1.21415111          2.08598402
     1         -0.33812962         -0.40808378          4.93970771
     1          2.18466730          2.63664352          2.01995045

 Electric dipole moment (dipole orientation):
 (Debye = 10**-18 statcoulomb cm , SI units = C m)
                  (au)            (Debye)         (10**-30 SI)
   Tot        0.752391D-04      0.191239D-03      0.637904D-03
   x          0.000000D+00      0.000000D+00      0.000000D+00
   y          0.000000D+00      0.000000D+00      0.000000D+00
   z          0.752391D-04      0.191239D-03      0.637904D-03

 Dipole polarizability, Alpha (dipole orientation).
 (esu units = cm**3 , SI units = C**2 m**2 J**-1)
 Alpha(0;0):
               (au)            (10**-24 esu)      (10**-40 SI)
   iso        0.100989D+02      0.149651D+01      0.166509D+01
   aniso      0.909841D+01      0.134825D+01      0.150013D+01
   xx         0.776826D+01      0.115114D+01      0.128081D+01
   yx         0.350396D+01      0.519234D+00      0.577725D+00
   yy         0.909383D+01      0.134757D+01      0.149937D+01
   zx        -0.163053D+01     -0.241620D+00     -0.268838D+00
   zy        -0.196786D+01     -0.291607D+00     -0.324457D+00
   zz         0.134347D+02      0.199082D+01      0.221508D+01

 ----------------------------------------------------------------------
 Unable to Open any file for archive entry.
 1\1\GINC-HPC-D36-7-4\Freq\UPBEPBE\6-31G(d,p)\H2O2\GDB20\05-Oct-2024\0\
 \#N Geom=AllCheck Guess=TCheck SCRF=Check GenChk UPBEPBE/6-31G(d,p) Fr
 eq\\created with so and so tool\\0,1\O,-1.5410232111,2.1821488989,0.\O
 ,-0.3176262871,1.3467842267,0.\H,-2.1917445978,1.4518267505,0.\H,0.332
 994096,2.077240124,0.\\Version=EM64L-G16RevC.01\State=1-A'\HF=-151.388
 1434\S2=0.\S2-1=0.\S2A=0.\RMSD=4.861e-10\RMSF=1.975e-05\ZeroPoint=0.02
 50453\Thermal=0.0279497\ETot=-151.3601937\HTot=-151.3592495\GTot=-151.
 3852813\Dipole=-0.0000579,0.000048,0.\DipoleDeriv=-0.2533822,0.0604196
 ,0.,0.0379494,-0.1442261,0.,0.,0.,-0.3668535,-0.2533607,0.0603981,0.,0
 .0379747,-0.1442223,0.,0.,0.,-0.3668092,0.2533596,-0.0604178,0.,-0.037
 9572,0.144229,0.,0.,0.,0.3668396,0.2533833,-0.0603999,0.,-0.037967,0.1
 442195,0.,0.,0.,0.3668231\Polar=15.3605891,-0.2312788,10.0712499,0.,0.
 ,4.8649458\Quadrupole=2.625895,-1.1396211,-1.486274,2.0134942,0.,0.\PG
 =CS [SG(H2O2)]\NImag=1\\0.43341963,0.14595889,0.41412838,0.,0.,-0.0012
 2205,-0.18754400,0.07107719,0.,0.43328424,0.07107891,-0.11860857,0.,0.
 14588984,0.41412428,0.,0.,-0.00118847,0.,0.,-0.00119228,-0.21315680,-0
 .19105178,0.,-0.03270068,-0.02598554,0.,0.25275734,-0.25173398,-0.3096
 5830,0.,0.03469530,0.01414419,0.,0.21051382,0.29884545,0.,0.,0.0012060
 4,0.,0.,0.00119838,0.,0.,-0.00120213,-0.03271882,-0.02598430,0.,-0.213
 03956,-0.19098321,0.,-0.00689986,0.00652486,0.,0.25265824,0.03469618,0
 .01413849,0.,-0.25166233,-0.30965990,0.,0.00652351,-0.00333134,0.,0.21
 044265,0.29885275,0.,0.,0.00120449,0.,0.,0.00118238,0.,0.,-0.00120229,
 0.,0.,-0.00118458\\0.00003357,-0.00003279,0.,-0.00004150,-0.00000048,0
 .,-0.00000283,0.00001043,0.,0.00001076,0.00002285,0.\\\@
 The archive entry for this job was punched.


 YOU CANNOT THROW TO THE GROUND THE LETTERS OF
 THE GREEK ALPHABET AND PICK UP THE ILIAD.
        - RUFUS CHOATE, 1799-1859
 Job cpu time:       0 days  0 hours  0 minutes 20.9 seconds.
 Elapsed time:       0 days  0 hours  0 minutes 20.9 seconds.
 File lengths (MBytes):  RWF=    136 Int=      0 D2E=      0 Chk=     16 Scr=     16
 Normal termination of Gaussian 16 at Sat Oct  5 18:31:35 2024.
