      -----------------------------------------------------------      
     |                   =====================                   |     
     |                           x T B                           |     
     |                   =====================                   |     
     |                         S. Grimme                         |     
     |          Mulliken Center for Theoretical Chemistry        |     
     |                    University of Bonn                     |     
      -----------------------------------------------------------      

   * xtb version 6.6.1 (8d0f1dd) compiled by 'conda@1efc2f54142f' on 2023-08-01

   xtb is free software: you can redistribute it and/or modify it under
   the terms of the GNU Lesser General Public License as published by
   the Free Software Foundation, either version 3 of the License, or
   (at your option) any later version.
   
   xtb is distributed in the hope that it will be useful,
   but WITHOUT ANY WARRANTY; without even the implied warranty of
   MERCHANTABILITY or FITNESS FOR A PARTICULAR PURPOSE.  See the
   GNU Lesser General Public License for more details.
   
   Cite this work as:
   * C. Bannwarth, E. Caldeweyher, S. Ehlert, A. Hansen, P. Pracht,
     J. Seibert, S. Spicher, S. Grimme, WIREs Comput. Mol. Sci., 2020, 11,
     e01493. DOI: 10.1002/wcms.1493
   
   for GFN2-xTB:
   * C. Bannwarth, S. Ehlert and S. Grimme., J. Chem. Theory Comput., 2019,
     15, 1652-1671. DOI: 10.1021/acs.jctc.8b01176
   for GFN1-xTB:
   * S. Grimme, C. Bannwarth, P. Shushkov, J. Chem. Theory Comput., 2017,
     13, 1989-2009. DOI: 10.1021/acs.jctc.7b00118
   for GFN0-xTB:
   * P. Pracht, E. Caldeweyher, S. Ehlert, S. Grimme, ChemRxiv, 2019, preprint.
     DOI: 10.26434/chemrxiv.8326202.v1
   for GFN-FF:
   * S. Spicher and S. Grimme, Angew. Chem. Int. Ed., 2020, 59, 15665-15673.
     DOI: 10.1002/anie.202004239
   
   for ALPB and GBSA implicit solvation:
   * S. Ehlert, M. Stahn, S. Spicher, S. Grimme, J. Chem. Theory Comput.,
     2021, 17, 4250-4261. DOI: 10.1021/acs.jctc.1c00471
   
   for DFT-D4:
   * E. Caldeweyher, C. Bannwarth and S. Grimme, J. Chem. Phys., 2017,
     147, 034112. DOI: 10.1063/1.4993215
   * E. Caldeweyher, S. Ehlert, A. Hansen, H. Neugebauer, S. Spicher,
     C. Bannwarth and S. Grimme, J. Chem. Phys., 2019, 150, 154122.
     DOI: 10.1063/1.5090222
   * E. Caldeweyher, J.-M. Mewes, S. Ehlert and S. Grimme, Phys. Chem. Chem. Phys.
     2020, 22, 8499-8512. DOI: 10.1039/D0CP00502A
   
   for sTDA-xTB:
   * S. Grimme and C. Bannwarth, J. Chem. Phys., 2016, 145, 054103.
     DOI: 10.1063/1.4959605
   
   in the mass-spec context:
   * V. Asgeirsson, C. Bauer and S. Grimme, Chem. Sci., 2017, 8, 4879.
     DOI: 10.1039/c7sc00601b
   * J. Koopman and S. Grimme, ACS Omega 2019, 4, 12, 15120-15133.
     DOI: 10.1021/acsomega.9b02011
   
   for metadynamics refer to:
   * S. Grimme, J. Chem. Theory Comput., 2019, 155, 2847-2862
     DOI: 10.1021/acs.jctc.9b00143
   
   for SPH calculations refer to:
   * S. Spicher and S. Grimme, J. Chem. Theory Comput., 2021, 17, 1701-1714
     DOI: 10.1021/acs.jctc.0c01306
   
   with help from (in alphabetical order)
   P. Atkinson, C. Bannwarth, F. Bohle, G. Brandenburg, E. Caldeweyher
   M. Checinski, S. Dohm, S. Ehlert, S. Ehrlich, I. Gerasimov, C. Hölzer
   A. Katbashev, J. Koopman, C. Lavigne, S. Lehtola, F. März, M. Müller,
   F. Musil, H. Neugebauer, J. Pisarek, C. Plett, P. Pracht, F. Pultar,
   J. Seibert, P. Shushkov, S. Spicher, M. Stahn, M. Steiner, T. Strunk,
   J. Stückrath, T. Rose, and J. Unsleber
   
 * started run on 2024/09/24 at 23:59:02.323     

           -------------------------------------------------
          |                Calculation Setup                |
           -------------------------------------------------

          program call               : /gpfs/home/gdb20/.conda/envs/crest3/bin/xtb boss-dirad.xyz -P 4 --gfn2 --opt
          hostname                   : hpc-d36-5-1
          coordinate file            : boss-dirad.xyz
          omp threads                :                     4

   ID    Z sym.   atoms
    1    6 C      1-9, 11-14, 19-25, 31-36, 42-45, 50-61, 66-71, 77-80
    2    1 H      10, 15-18, 26-30, 37-41, 46-49, 62-65, 72-76, 81-84

           -------------------------------------------------
          |                 G F N 2 - x T B                 |
           -------------------------------------------------

        Reference                      10.1021/acs.jctc.8b01176
      * Hamiltonian:
        H0-scaling (s, p, d)           1.850000    2.230000    2.230000
        zeta-weighting                 0.500000
      * Dispersion:
        s8                             2.700000
        a1                             0.520000
        a2                             5.000000
        s9                             5.000000
      * Repulsion:
        kExp                           1.500000    1.000000
        rExp                           1.000000
      * Coulomb:
        alpha                          2.000000
        third order                    shell-resolved
        anisotropic                    true
        a3                             3.000000
        a5                             4.000000
        cn-shift                       1.200000
        cn-exp                         4.000000
        max-rad                        5.000000


          ...................................................
          :                      SETUP                      :
          :.................................................:
          :  # basis functions                 240          :
          :  # atomic orbitals                 240          :
          :  # shells                          136          :
          :  # electrons                       240          :
          :  max. iterations                   250          :
          :  Hamiltonian                  GFN2-xTB          :
          :  restarted?                      false          :
          :  GBSA solvation                  false          :
          :  PC potential                    false          :
          :  electronic temp.          300.0000000     K    :
          :  accuracy                    1.0000000          :
          :  -> integral cutoff          0.2500000E+02      :
          :  -> integral neglect         0.1000000E-07      :
          :  -> SCF convergence          0.1000000E-05 Eh   :
          :  -> wf. convergence          0.1000000E-03 e    :
          :  Broyden damping             0.4000000          :
          ...................................................

 iter      E             dE          RMSdq      gap      omega  full diag
   1   -129.4938375 -0.129494E+03  0.473E+00    0.83       0.0  T
   2   -128.8679493  0.625888E+00  0.338E+00    0.35       1.0  T
   3   -126.0694938  0.279846E+01  0.374E+00    0.61       1.0  T
   4   -129.4450682 -0.337557E+01  0.131E+00    0.23       1.0  T
   5   -129.5715313 -0.126463E+00  0.109E+00    0.83       1.0  T
   6   -129.6760599 -0.104529E+00  0.604E-01    0.32       1.0  T
   7   -129.5868780  0.891819E-01  0.766E-01    0.31       1.0  T
   8   -129.6802641 -0.933861E-01  0.537E-01    0.32       1.0  T
   9   -129.7218333 -0.415692E-01  0.991E-02    0.24       1.0  T
  10   -129.7224417 -0.608476E-03  0.468E-02    0.24       1.0  T
  11   -129.7183805  0.406126E-02  0.142E-01    0.23       1.0  T
  12   -129.7224324 -0.405192E-02  0.242E-02    0.24       1.0  T
  13   -129.7225175 -0.850551E-04  0.193E-02    0.24       1.0  T
  14   -129.7225761 -0.586796E-04  0.371E-03    0.24       2.9  T
  15   -129.7225768 -0.669543E-06  0.149E-03    0.24       7.3  T
  16   -129.7225739  0.289944E-05  0.401E-03    0.24       2.7  T
  17   -129.7225771 -0.316071E-05  0.838E-04    0.24      13.0  T
  18   -129.7225771 -0.571489E-07  0.596E-04    0.24      18.3  T
  19   -129.7225772 -0.746553E-07  0.746E-05    0.24     146.4  T

   *** convergence criteria satisfied after 19 iterations ***

         #    Occupation            Energy/Eh            Energy/eV
      -------------------------------------------------------------
         1        2.0000           -0.7149389             -19.4545
       ...           ...                  ...                  ...
       114        2.0000           -0.3839904             -10.4489
       115        2.0000           -0.3786469             -10.3035
       116        2.0000           -0.3648172              -9.9272
       117        2.0000           -0.3622114              -9.8563
       118        2.0000           -0.3575955              -9.7307
       119        2.0000           -0.3487462              -9.4899
       120        1.9806           -0.3249349              -8.8419 (HOMO)
       121        0.0194           -0.3161414              -8.6026 (LUMO)
       122                         -0.2700758              -7.3491
       123                         -0.2617407              -7.1223
       124                         -0.2543510              -6.9212
       125                         -0.2503306              -6.8118
       ...                                ...                  ...
       240                          2.0523113              55.8462
      -------------------------------------------------------------
                  HL-Gap            0.0087935 Eh            0.2393 eV
             Fermi-level           -0.3205381 Eh           -8.7223 eV

 SCC (total)                   0 d,  0 h,  0 min,  0.862 sec
 SCC setup                      ...        0 min,  0.004 sec (  0.477%)
 Dispersion                     ...        0 min,  0.010 sec (  1.201%)
 classical contributions        ...        0 min,  0.002 sec (  0.249%)
 integral evaluation            ...        0 min,  0.039 sec (  4.516%)
 iterations                     ...        0 min,  0.679 sec ( 78.756%)
 molecular gradient             ...        0 min,  0.124 sec ( 14.361%)
 printout                       ...        0 min,  0.004 sec (  0.432%)

         :::::::::::::::::::::::::::::::::::::::::::::::::::::
         ::                     SUMMARY                     ::
         :::::::::::::::::::::::::::::::::::::::::::::::::::::
         :: total energy            -126.882515832422 Eh    ::
         :: gradient norm              1.258694526909 Eh/a0 ::
         :: HOMO-LUMO gap              0.239284202848 eV    ::
         ::.................................................::
         :: SCC energy              -129.722577195014 Eh    ::
         :: -> isotropic ES            0.008191894152 Eh    ::
         :: -> anisotropic ES          0.014121328950 Eh    ::
         :: -> anisotropic XC          0.083879147666 Eh    ::
         :: -> dispersion             -0.134811158536 Eh    ::
         :: repulsion energy           2.839267893898 Eh    ::
         :: add. restraining           0.000000000000 Eh    ::
         :: total charge               0.000000000000 e     ::
         :::::::::::::::::::::::::::::::::::::::::::::::::::::

      ----------------------------------------------------------- 
     |                   =====================                   |
     |                        A N C O P T                        |
     |                   =====================                   |
     |               Approximate Normal Coordinate               |
     |                Rational Function Optimizer                |
      ----------------------------------------------------------- 

          ...................................................
          :                      SETUP                      :
          :.................................................:
          :   optimization level            normal          :
          :   max. optcycles                   252          :
          :   ANC micro-cycles                  20          :
          :   degrees of freedom               246          :
          :.................................................:
          :   RF solver                   davidson          :
          :   write xtbopt.log                true          :
          :   linear?                        false          :
          :   energy convergence         0.5000000E-05 Eh   :
          :   grad. convergence          0.1000000E-02 Eh/α :
          :   maxmium RF displ.          1.0000000          :
          :   Hlow (freq-cutoff)         0.1000000E-01      :
          :   Hmax (freq-cutoff)         5.0000000          :
          :   S6 in model hess.         20.0000000          :
          ...................................................

generating ANC from model Hessian ...
Using Lindh-Hessian (1995)
 Shifting diagonal of input Hessian by    9.9096763422092757E-003
 Lowest  eigenvalues of input Hessian
    0.000000    0.000000    0.000000    0.000000    0.000000    0.000000
    0.010000    0.010124    0.010298    0.010482    0.010563    0.011006
    0.011243    0.011397    0.011650    0.011970    0.012260    0.012666
 Highest eigenvalues
    2.296539    2.407910    2.515499    2.705722    3.001147    3.381781


........................................................................
.............................. CYCLE    1 ..............................
........................................................................

 iter      E             dE          RMSdq      gap      omega  full diag
   1   -129.7225772 -0.129723E+03  0.843E-05    0.24       0.0  T
   2   -129.7225769  0.280818E-06  0.113E-03    0.24       9.6  T
   3   -129.7225772 -0.282171E-06  0.367E-05    0.24     297.2  T
   4   -129.7225772 -0.143757E-09  0.237E-05    0.24     460.2  T
     SCC iter.                  ...        0 min,  0.120 sec
     gradient                   ...        0 min,  0.111 sec
 * total energy  :  -126.8825158 Eh     change       -0.8497238E-09 Eh
   gradient norm :     1.2586952 Eh/α   predicted     0.0000000E+00 (-100.00%)
   displ. norm   :     0.5638328 α      lambda       -0.5869445E+00
   maximum displ.:     0.2458851 α      in ANC's #246, #243, #166, ...

........................................................................
.............................. CYCLE    2 ..............................
........................................................................

 iter      E             dE          RMSdq      gap      omega  full diag
   1   -129.8124748 -0.129812E+03  0.521E-01    0.37       0.0  T
   2   -129.5832458  0.229229E+00  0.122E+00    1.34       1.0  T
   3   -129.8068031 -0.223557E+00  0.565E-01    0.47       1.0  T
   4   -129.8462481 -0.394450E-01  0.238E-01    0.35       1.0  T
   5   -129.8356193  0.106289E-01  0.267E-01    0.36       1.0  T
   6   -129.8480122 -0.123929E-01  0.626E-02    0.36       1.0  T
   7   -129.8485963 -0.584155E-03  0.123E-02    0.36       1.0  T
   8   -129.8485274  0.689116E-04  0.221E-02    0.36       1.0  T
   9   -129.8485666 -0.391954E-04  0.145E-02    0.36       1.0  T
  10   -129.8486014 -0.347600E-04  0.455E-03    0.36       2.4  T
  11   -129.8485952  0.624012E-05  0.718E-03    0.36       1.5  T
  12   -129.8486041 -0.894160E-05  0.126E-03    0.36       8.7  T
  13   -129.8486040  0.536840E-07  0.130E-03    0.36       8.4  T
  14   -129.8486043 -0.283583E-06  0.296E-04    0.36      36.8  T
  15   -129.8486043 -0.135096E-07  0.502E-05    0.36     217.4  T
     SCC iter.                  ...        0 min,  0.474 sec
     gradient                   ...        0 min,  0.118 sec
 * total energy  :  -127.2601768 Eh     change       -0.3776609E+00 Eh
   gradient norm :     0.4170033 Eh/α   predicted    -0.3868487E+00 (   2.43%)
   displ. norm   :     0.6435355 α      lambda       -0.2014051E+00
   maximum displ.:     0.1953058 α      in ANC's #85, #100, #98, ...

........................................................................
.............................. CYCLE    3 ..............................
........................................................................

 iter      E             dE          RMSdq      gap      omega  full diag
   1   -129.9790927 -0.129979E+03  0.378E-01    0.42       0.0  T
   2   -129.8609190  0.118174E+00  0.856E-01    0.74       1.0  T
   3   -129.9827046 -0.121786E+00  0.242E-01    0.42       1.0  T
   4   -129.9820361  0.668525E-03  0.170E-01    0.44       1.0  T
   5   -129.9856850 -0.364893E-02  0.590E-02    0.42       1.0  T
   6   -129.9861750 -0.489971E-03  0.168E-02    0.42       1.0  T
   7   -129.9861947 -0.197770E-04  0.144E-02    0.42       1.0  T
   8   -129.9862086 -0.138742E-04  0.898E-03    0.42       1.2  T
   9   -129.9862195 -0.108998E-04  0.458E-03    0.42       2.4  T
  10   -129.9862231 -0.358175E-05  0.547E-04    0.42      19.9  T
  11   -129.9862230  0.616643E-07  0.708E-04    0.42      15.4  T
  12   -129.9862231 -0.763812E-07  0.291E-04    0.42      37.5  T
     SCC iter.                  ...        0 min,  0.356 sec
     gradient                   ...        0 min,  0.116 sec
 * total energy  :  -127.4148867 Eh     change       -0.1547099E+00 Eh
   gradient norm :     0.1944020 Eh/α   predicted    -0.1424074E+00 (  -7.95%)
   displ. norm   :     0.6830265 α      lambda       -0.1042473E+00
   maximum displ.:     0.1944144 α      in ANC's #85, #100, #21, ...

........................................................................
.............................. CYCLE    4 ..............................
........................................................................

 iter      E             dE          RMSdq      gap      omega  full diag
   1   -130.0738162 -0.130074E+03  0.359E-01    0.45       0.0  T
   2   -129.9951988  0.786173E-01  0.714E-01    0.64       1.0  T
   3   -130.0666386 -0.714397E-01  0.311E-01    0.45       1.0  T
   4   -130.0748920 -0.825345E-02  0.140E-01    0.47       1.0  T
   5   -130.0771155 -0.222346E-02  0.482E-02    0.46       1.0  T
   6   -130.0773736 -0.258116E-03  0.233E-02    0.46       1.0  T
   7   -130.0774369 -0.633302E-04  0.779E-03    0.45       1.4  T
   8   -130.0774385 -0.161990E-05  0.295E-03    0.45       3.7  T
   9   -130.0774389 -0.325565E-06  0.159E-03    0.45       6.9  T
  10   -130.0774392 -0.348356E-06  0.682E-04    0.45      16.0  T
  11   -130.0774393 -0.587751E-07  0.269E-04    0.45      40.6  T
     SCC iter.                  ...        0 min,  0.329 sec
     gradient                   ...        0 min,  0.121 sec
 * total energy  :  -127.4931499 Eh     change       -0.7826321E-01 Eh
   gradient norm :     0.1021855 Eh/α   predicted    -0.7644083E-01 (  -2.33%)
   displ. norm   :     0.7172818 α      lambda       -0.5555046E-01
   maximum displ.:     0.2296910 α      in ANC's #21, #33, #37, ...

........................................................................
.............................. CYCLE    5 ..............................
........................................................................

 iter      E             dE          RMSdq      gap      omega  full diag
   1   -130.1073985 -0.130107E+03  0.306E-01    0.46       0.0  T
   2   -130.0845593  0.228392E-01  0.409E-01    0.52       1.0  T
   3   -130.0689038  0.156555E-01  0.505E-01    0.48       1.0  T
   4   -130.1067186 -0.378148E-01  0.993E-02    0.47       1.0  T
   5   -130.1081303 -0.141168E-02  0.257E-02    0.46       1.0  T
   6   -130.1081659 -0.355675E-04  0.173E-02    0.46       1.0  T
   7   -130.1081839 -0.180098E-04  0.124E-02    0.46       1.0  T
   8   -130.1081927 -0.887171E-05  0.342E-03    0.46       3.2  T
   9   -130.1081934 -0.660691E-06  0.907E-04    0.46      12.0  T
  10   -130.1081935 -0.853815E-07  0.278E-04    0.46      39.2  T
     SCC iter.                  ...        0 min,  0.301 sec
     gradient                   ...        0 min,  0.116 sec
 * total energy  :  -127.5376057 Eh     change       -0.4445580E-01 Eh
   gradient norm :     0.0640250 Eh/α   predicted    -0.4206539E-01 (  -5.38%)
   displ. norm   :     0.7561422 α      lambda       -0.3558055E-01
   maximum displ.:     0.2785050 α      in ANC's #21, #33, #37, ...

........................................................................
.............................. CYCLE    6 ..............................
........................................................................

 iter      E             dE          RMSdq      gap      omega  full diag
   1   -130.1208301 -0.130121E+03  0.268E-01    0.46       0.0  T
   2   -130.1143874  0.644272E-02  0.252E-01    0.48       1.0  T
   3   -130.0520818  0.623056E-01  0.651E-01    0.50       1.0  T
   4   -130.1196738 -0.675919E-01  0.922E-02    0.46       1.0  T
   5   -130.1210261 -0.135232E-02  0.219E-02    0.46       1.0  T
   6   -130.1210914 -0.652902E-04  0.751E-03    0.46       1.5  T
   7   -130.1210923 -0.937063E-06  0.571E-03    0.46       1.9  T
   8   -130.1210919  0.433988E-06  0.227E-03    0.46       4.8  T
   9   -130.1210925 -0.638555E-06  0.361E-04    0.46      30.2  T
  10   -130.1210925 -0.446417E-08  0.158E-04    0.46      68.9  T
     SCC iter.                  ...        0 min,  0.300 sec
     gradient                   ...        0 min,  0.118 sec
 * total energy  :  -127.5667612 Eh     change       -0.2915548E-01 Eh
   gradient norm :     0.0448305 Eh/α   predicted    -0.2796189E-01 (  -4.09%)
   displ. norm   :     0.7662508 α      lambda       -0.2384340E-01
   maximum displ.:     0.2956580 α      in ANC's #21, #33, #22, ...

........................................................................
.............................. CYCLE    7 ..............................
........................................................................

 iter      E             dE          RMSdq      gap      omega  full diag
   1   -130.1254058 -0.130125E+03  0.231E-01    0.46       0.0  T
   2   -130.1234960  0.190986E-02  0.175E-01    0.47       1.0  T
   3   -130.0492954  0.742005E-01  0.677E-01    0.50       1.0  T
   4   -130.1248112 -0.755158E-01  0.675E-02    0.46       1.0  T
   5   -130.1254777 -0.666489E-03  0.173E-02    0.46       1.0  T
   6   -130.1255213 -0.436186E-04  0.427E-03    0.46       2.6  T
   7   -130.1255216 -0.273034E-06  0.307E-03    0.46       3.6  T
   8   -130.1255216  0.491715E-07  0.130E-03    0.46       8.4  T
   9   -130.1255218 -0.205225E-06  0.220E-04    0.46      49.5  T
  10   -130.1255218 -0.128443E-08  0.115E-04    0.46      95.3  T
     SCC iter.                  ...        0 min,  0.292 sec
     gradient                   ...        0 min,  0.115 sec
 * total energy  :  -127.5864337 Eh     change       -0.1967252E-01 Eh
   gradient norm :     0.0343203 Eh/α   predicted    -0.1892143E-01 (  -3.82%)
   displ. norm   :     0.7515953 α      lambda       -0.1608168E-01
   maximum displ.:     0.2781039 α      in ANC's #21, #22, #33, ...

........................................................................
.............................. CYCLE    8 ..............................
........................................................................

 iter      E             dE          RMSdq      gap      omega  full diag
   1   -130.1278640 -0.130128E+03  0.206E-01    0.46       0.0  T
   2   -130.1259271  0.193691E-02  0.165E-01    0.47       1.0  T
   3   -130.0698899  0.560372E-01  0.593E-01    0.49       1.0  T
   4   -130.1274156 -0.575257E-01  0.596E-02    0.46       1.0  T
   5   -130.1279382 -0.522594E-03  0.128E-02    0.46       1.0  T
   6   -130.1279600 -0.217543E-04  0.400E-03    0.46       2.7  T
   7   -130.1279602 -0.252925E-06  0.300E-03    0.46       3.6  T
   8   -130.1279603 -0.579935E-07  0.123E-03    0.46       8.9  T
   9   -130.1279605 -0.194974E-06  0.174E-04    0.46      62.8  T
  10   -130.1279605 -0.951957E-09  0.965E-05    0.46     113.0  T
     SCC iter.                  ...        0 min,  0.309 sec
     gradient                   ...        0 min,  0.123 sec
 * total energy  :  -127.5995050 Eh     change       -0.1307129E-01 Eh
   gradient norm :     0.0260461 Eh/α   predicted    -0.1258308E-01 (  -3.73%)
   displ. norm   :     0.7165879 α      lambda       -0.1024650E-01
   maximum displ.:     0.2392010 α      in ANC's #22, #21, #32, ...

........................................................................
.............................. CYCLE    9 ..............................
........................................................................

 iter      E             dE          RMSdq      gap      omega  full diag
   1   -130.1259917 -0.130126E+03  0.180E-01    0.46       0.0  T
   2   -130.1233696  0.262211E-02  0.167E-01    0.48       1.0  T
   3   -130.0930521  0.303175E-01  0.450E-01    0.47       1.0  T
   4   -130.1257235 -0.326714E-01  0.487E-02    0.47       1.0  T
   5   -130.1260785 -0.355069E-03  0.919E-03    0.46       1.2  T
   6   -130.1260865 -0.794679E-05  0.448E-03    0.46       2.4  T
   7   -130.1260874 -0.937837E-06  0.317E-03    0.46       3.4  T
   8   -130.1260879 -0.440028E-06  0.898E-04    0.46      12.1  T
   9   -130.1260879 -0.708690E-07  0.142E-04    0.46      76.7  T
     SCC iter.                  ...        0 min,  0.273 sec
     gradient                   ...        0 min,  0.155 sec
 * total energy  :  -127.6075791 Eh     change       -0.8074167E-02 Eh
   gradient norm :     0.0209726 Eh/α   predicted    -0.7754036E-02 (  -3.96%)
   displ. norm   :     0.6771514 α      lambda       -0.6121026E-02
   maximum displ.:     0.2192847 α      in ANC's #9, #6, #22, ...

........................................................................
.............................. CYCLE   10 ..............................
........................................................................

 iter      E             dE          RMSdq      gap      omega  full diag
   1   -130.1234225 -0.130123E+03  0.151E-01    0.47       0.0  T
   2   -130.1197735  0.364902E-02  0.175E-01    0.49       1.0  T
   3   -130.1108398  0.893371E-02  0.285E-01    0.47       1.0  T
   4   -130.1233329 -0.124931E-01  0.365E-02    0.47       1.0  T
   5   -130.1235313 -0.198466E-03  0.777E-03    0.47       1.4  T
   6   -130.1235362 -0.488318E-05  0.443E-03    0.47       2.5  T
   7   -130.1235376 -0.139002E-05  0.285E-03    0.47       3.8  T
   8   -130.1235382 -0.562546E-06  0.735E-04    0.47      14.8  T
   9   -130.1235382 -0.462724E-07  0.128E-04    0.47      85.1  T
     SCC iter.                  ...        0 min,  0.274 sec
     gradient                   ...        0 min,  0.122 sec
 * total energy  :  -127.6123389 Eh     change       -0.4759726E-02 Eh
   gradient norm :     0.0155583 Eh/α   predicted    -0.4463865E-02 (  -6.22%)
   displ. norm   :     0.6795249 α      lambda       -0.4191801E-02
   maximum displ.:     0.2657579 α      in ANC's #9, #6, #13, ...

........................................................................
.............................. CYCLE   11 ..............................
........................................................................

 iter      E             dE          RMSdq      gap      omega  full diag
   1   -130.1211123 -0.130121E+03  0.137E-01    0.48       0.0  T
   2   -130.1181952  0.291716E-02  0.157E-01    0.50       1.0  T
   3   -130.1108548  0.734033E-02  0.257E-01    0.48       1.0  T
   4   -130.1211068 -0.102520E-01  0.247E-02    0.48       1.0  T
   5   -130.1211989 -0.920592E-04  0.696E-03    0.48       1.6  T
   6   -130.1212030 -0.415400E-05  0.400E-03    0.48       2.7  T
   7   -130.1212044 -0.136890E-05  0.229E-03    0.48       4.8  T
   8   -130.1212047 -0.288114E-06  0.664E-04    0.48      16.4  T
   9   -130.1212047 -0.466331E-07  0.145E-04    0.48      75.0  T
     SCC iter.                  ...        0 min,  0.264 sec
     gradient                   ...        0 min,  0.121 sec
 * total energy  :  -127.6155911 Eh     change       -0.3252226E-02 Eh
   gradient norm :     0.0167730 Eh/α   predicted    -0.3063695E-02 (  -5.80%)
   displ. norm   :     0.7174706 α      lambda       -0.3737676E-02
   maximum displ.:     0.2957652 α      in ANC's #9, #6, #13, ...

........................................................................
.............................. CYCLE   12 ..............................
........................................................................

 iter      E             dE          RMSdq      gap      omega  full diag
   1   -130.1193957 -0.130119E+03  0.138E-01    0.50       0.0  T
   2   -130.1170423  0.235336E-02  0.145E-01    0.51       1.0  T
   3   -130.1078020  0.924029E-02  0.273E-01    0.49       1.0  T
   4   -130.1194212 -0.116192E-01  0.196E-02    0.50       1.0  T
   5   -130.1194738 -0.525409E-04  0.574E-03    0.50       1.9  T
   6   -130.1194768 -0.303826E-05  0.303E-03    0.50       3.6  T
   7   -130.1194773 -0.507811E-06  0.196E-03    0.50       5.6  T
   8   -130.1194774 -0.136806E-06  0.569E-04    0.50      19.2  T
   9   -130.1194775 -0.300376E-07  0.122E-04    0.50      89.5  T
     SCC iter.                  ...        0 min,  0.272 sec
     gradient                   ...        0 min,  0.114 sec
 * total energy  :  -127.6185074 Eh     change       -0.2916356E-02 Eh
   gradient norm :     0.0160814 Eh/α   predicted    -0.2830857E-02 (  -2.93%)
   displ. norm   :     0.7263071 α      lambda       -0.3378689E-02
   maximum displ.:     0.3097817 α      in ANC's #9, #6, #13, ...

........................................................................
.............................. CYCLE   13 ..............................
........................................................................

 iter      E             dE          RMSdq      gap      omega  full diag
   1   -130.1215809 -0.130122E+03  0.140E-01    0.51       0.0  T
   2   -130.1203601  0.122083E-02  0.119E-01    0.52       1.0  T
   3   -130.1038491  0.165110E-01  0.333E-01    0.51       1.0  T
   4   -130.1216126 -0.177635E-01  0.115E-02    0.52       1.0  T
   5   -130.1216260 -0.134349E-04  0.424E-03    0.52       2.6  T
   6   -130.1216276 -0.155927E-05  0.246E-03    0.52       4.4  T
   7   -130.1216277 -0.155715E-06  0.180E-03    0.52       6.0  T
   8   -130.1216279 -0.131143E-06  0.425E-04    0.52      25.7  T
   9   -130.1216279 -0.178703E-07  0.135E-04    0.52      80.8  T
     SCC iter.                  ...        0 min,  0.268 sec
     gradient                   ...        0 min,  0.118 sec
 * total energy  :  -127.6214168 Eh     change       -0.2909367E-02 Eh
   gradient norm :     0.0165249 Eh/α   predicted    -0.2580512E-02 ( -11.30%)
   displ. norm   :     0.7656044 α      lambda       -0.3501944E-02
   maximum displ.:     0.3115998 α      in ANC's #9, #6, #13, ...

........................................................................
.............................. CYCLE   14 ..............................
........................................................................

 iter      E             dE          RMSdq      gap      omega  full diag
   1   -130.1287096 -0.130129E+03  0.154E-01    0.53       0.0  T
   2   -130.1284345  0.275049E-03  0.981E-02    0.53       1.0  T
   3   -130.1049399  0.234946E-01  0.382E-01    0.53       1.0  T
   4   -130.1287174 -0.237775E-01  0.956E-03    0.53       1.1  T
   5   -130.1287265 -0.909943E-05  0.251E-03    0.53       4.3  T
   6   -130.1287267 -0.199829E-06  0.173E-03    0.53       6.3  T
   7   -130.1287268 -0.103726E-06  0.113E-03    0.53       9.7  T
   8   -130.1287269 -0.678697E-07  0.361E-04    0.53      30.2  T
   9   -130.1287269 -0.151887E-07  0.108E-04    0.53     101.5  T
     SCC iter.                  ...        0 min,  0.264 sec
     gradient                   ...        0 min,  0.120 sec
 * total energy  :  -127.6243206 Eh     change       -0.2903758E-02 Eh
   gradient norm :     0.0161607 Eh/α   predicted    -0.2777305E-02 (  -4.35%)
   displ. norm   :     0.7727972 α      lambda       -0.3140900E-02
   maximum displ.:     0.3144848 α      in ANC's #9, #6, #13, ...

........................................................................
.............................. CYCLE   15 ..............................
........................................................................

 iter      E             dE          RMSdq      gap      omega  full diag
   1   -130.1350985 -0.130135E+03  0.160E-01    0.54       0.0  T
   2   -130.1349646  0.133915E-03  0.976E-02    0.55       1.0  T
   3   -130.1182364  0.167281E-01  0.322E-01    0.54       1.0  T
   4   -130.1350871 -0.168507E-01  0.139E-02    0.55       1.0  T
   5   -130.1351136 -0.264701E-04  0.209E-03    0.54       5.2  T
   6   -130.1351137 -0.119262E-06  0.138E-03    0.54       7.9  T
   7   -130.1351137 -0.117932E-07  0.980E-04    0.54      11.1  T
   8   -130.1351138 -0.808517E-07  0.406E-04    0.54      26.9  T
     SCC iter.                  ...        0 min,  0.242 sec
     gradient                   ...        0 min,  0.118 sec
 * total energy  :  -127.6267267 Eh     change       -0.2406103E-02 Eh
   gradient norm :     0.0171050 Eh/α   predicted    -0.2508351E-02 (   4.25%)
   displ. norm   :     0.7513788 α      lambda       -0.2536402E-02
   maximum displ.:     0.3030134 α      in ANC's #9, #6, #13, ...

........................................................................
.............................. CYCLE   16 ..............................
........................................................................

 iter      E             dE          RMSdq      gap      omega  full diag
   1   -130.1353050 -0.130135E+03  0.152E-01    0.55       0.0  T
   2   -130.1349710  0.333983E-03  0.987E-02    0.56       1.0  T
   3   -130.1146591  0.203120E-01  0.357E-01    0.55       1.0  T
   4   -130.1353028 -0.206437E-01  0.137E-02    0.56       1.0  T
   5   -130.1353254 -0.226212E-04  0.401E-03    0.55       2.7  T
   6   -130.1353273 -0.183635E-05  0.175E-03    0.55       6.2  T
   7   -130.1353273 -0.438539E-07  0.121E-03    0.55       9.0  T
   8   -130.1353274 -0.592687E-07  0.378E-04    0.55      28.9  T
   9   -130.1353274 -0.165354E-07  0.777E-05    0.55     140.4  T
     SCC iter.                  ...        0 min,  0.265 sec
     gradient                   ...        0 min,  0.122 sec
 * total energy  :  -127.6287716 Eh     change       -0.2044964E-02 Eh
   gradient norm :     0.0149395 Eh/α   predicted    -0.1984189E-02 (  -2.97%)
   displ. norm   :     0.7119531 α      lambda       -0.2141348E-02
   maximum displ.:     0.2873233 α      in ANC's #8, #9, #13, ...

........................................................................
.............................. CYCLE   17 ..............................
........................................................................

 iter      E             dE          RMSdq      gap      omega  full diag
   1   -130.1419363 -0.130142E+03  0.143E-01    0.56       0.0  T
   2   -130.1418105  0.125803E-03  0.873E-02    0.56       1.0  T
   3   -130.1288243  0.129862E-01  0.284E-01    0.56       1.0  T
   4   -130.1419212 -0.130969E-01  0.142E-02    0.56       1.0  T
   5   -130.1419471 -0.258519E-04  0.333E-03    0.56       3.3  T
   6   -130.1419484 -0.129641E-05  0.137E-03    0.56       8.0  T
   7   -130.1419484 -0.398842E-07  0.827E-04    0.56      13.2  T
   8   -130.1419485 -0.321968E-07  0.334E-04    0.56      32.7  T
     SCC iter.                  ...        0 min,  0.236 sec
     gradient                   ...        0 min,  0.120 sec
 * total energy  :  -127.6304946 Eh     change       -0.1722996E-02 Eh
   gradient norm :     0.0131454 Eh/α   predicted    -0.1613378E-02 (  -6.36%)
   displ. norm   :     0.7171328 α      lambda       -0.1870110E-02
   maximum displ.:     0.3161761 α      in ANC's #8, #6, #13, ...

........................................................................
.............................. CYCLE   18 ..............................
........................................................................

 iter      E             dE          RMSdq      gap      omega  full diag
   1   -130.1470898 -0.130147E+03  0.149E-01    0.56       0.0  T
   2   -130.1468961  0.193699E-03  0.928E-02    0.57       1.0  T
   3   -130.1312162  0.156799E-01  0.313E-01    0.56       1.0  T
   4   -130.1470642 -0.158479E-01  0.166E-02    0.57       1.0  T
   5   -130.1471042 -0.399933E-04  0.353E-03    0.56       3.1  T
   6   -130.1471056 -0.141475E-05  0.150E-03    0.56       7.3  T
   7   -130.1471056 -0.312133E-07  0.102E-03    0.56      10.7  T
   8   -130.1471057 -0.464114E-07  0.472E-04    0.56      23.1  T
   9   -130.1471057 -0.338232E-07  0.876E-05    0.56     124.5  T
     SCC iter.                  ...        0 min,  0.265 sec
     gradient                   ...        0 min,  0.119 sec
 * total energy  :  -127.6319544 Eh     change       -0.1459737E-02 Eh
   gradient norm :     0.0126266 Eh/α   predicted    -0.1415939E-02 (  -3.00%)
   displ. norm   :     0.6796770 α      lambda       -0.1469148E-02
   maximum displ.:     0.3194227 α      in ANC's #8, #6, #13, ...

........................................................................
.............................. CYCLE   19 ..............................
........................................................................

 iter      E             dE          RMSdq      gap      omega  full diag
   1   -130.1459041 -0.130146E+03  0.143E-01    0.57       0.0  T
   2   -130.1456950  0.209067E-03  0.904E-02    0.57       1.0  T
   3   -130.1307403  0.149548E-01  0.306E-01    0.56       1.0  T
   4   -130.1458906 -0.151504E-01  0.140E-02    0.57       1.0  T
   5   -130.1459194 -0.287277E-04  0.280E-03    0.57       3.9  T
   6   -130.1459200 -0.689128E-06  0.144E-03    0.57       7.6  T
   7   -130.1459201 -0.154517E-07  0.108E-03    0.57      10.1  T
   8   -130.1459201 -0.592282E-07  0.523E-04    0.57      20.9  T
   9   -130.1459202 -0.451567E-07  0.100E-04    0.57     108.8  T
     SCC iter.                  ...        0 min,  0.263 sec
     gradient                   ...        0 min,  0.111 sec
 * total energy  :  -127.6330810 Eh     change       -0.1126636E-02 Eh
   gradient norm :     0.0129791 Eh/α   predicted    -0.1073923E-02 (  -4.68%)
   displ. norm   :     0.6176435 α      lambda       -0.1172936E-02
   maximum displ.:     0.3356847 α      in ANC's #8, #7, #13, ...

........................................................................
.............................. CYCLE   20 ..............................
........................................................................

 iter      E             dE          RMSdq      gap      omega  full diag
   1   -130.1525161 -0.130153E+03  0.132E-01    0.57       0.0  T
   2   -130.1524954  0.207096E-04  0.781E-02    0.57       1.0  T
   3   -130.1489737  0.352172E-02  0.148E-01    0.56       1.0  T
   4   -130.1524879 -0.351419E-02  0.141E-02    0.57       1.0  T
   5   -130.1525219 -0.340114E-04  0.185E-03    0.57       5.9  T
   6   -130.1525221 -0.237612E-06  0.117E-03    0.57       9.3  T
   7   -130.1525222 -0.905474E-07  0.557E-04    0.57      19.6  T
   8   -130.1525222 -0.170594E-07  0.277E-04    0.57      39.4  T
     SCC iter.                  ...        0 min,  0.240 sec
     gradient                   ...        0 min,  0.115 sec
 * total energy  :  -127.6339229 Eh     change       -0.8418930E-03 Eh
   gradient norm :     0.0125452 Eh/α   predicted    -0.8101969E-03 (  -3.76%)
   displ. norm   :     0.6324885 α      lambda       -0.9405991E-03
   maximum displ.:     0.3186636 α      in ANC's #8, #6, #13, ...
 * RMSD in coord.:     1.0972231 α      energy gain  -0.7514071E+00 Eh

generating ANC from model Hessian ...
Using Lindh-Hessian (1995)
 Shifting diagonal of input Hessian by    9.9146808164101013E-003
 Lowest  eigenvalues of input Hessian
    0.000000    0.000000    0.000000    0.000000    0.000000    0.000000
    0.010000    0.010054    0.010152    0.010185    0.010390    0.010655
    0.010840    0.010960    0.011134    0.011169    0.011375    0.011476
 Highest eigenvalues
    2.055580    2.064918    2.076267    2.081057    2.099409    2.122124


........................................................................
.............................. CYCLE   21 ..............................
........................................................................

 iter      E             dE          RMSdq      gap      omega  full diag
   1   -130.1410855 -0.130141E+03  0.137E-01    0.57       0.0  T
   2   -130.1408513  0.234142E-03  0.893E-02    0.57       1.0  T
   3   -130.1264096  0.144417E-01  0.300E-01    0.56       1.0  T
   4   -130.1410905 -0.146809E-01  0.101E-02    0.57       1.1  T
   5   -130.1411028 -0.122501E-04  0.224E-03    0.57       4.9  T
   6   -130.1411031 -0.319231E-06  0.157E-03    0.57       7.0  T
   7   -130.1411033 -0.188287E-06  0.860E-04    0.57      12.7  T
   8   -130.1411033 -0.149026E-07  0.461E-04    0.57      23.7  T
     SCC iter.                  ...        0 min,  0.235 sec
     gradient                   ...        0 min,  0.118 sec
 * total energy  :  -127.6344861 Eh     change       -0.5631677E-03 Eh
   gradient norm :     0.0132699 Eh/α   predicted     0.0000000E+00 (-100.00%)
   displ. norm   :     0.1169002 α      lambda       -0.4575905E-03
   maximum displ.:     0.0546309 α      in ANC's #12, #2, #18, ...

........................................................................
.............................. CYCLE   22 ..............................
........................................................................

 iter      E             dE          RMSdq      gap      omega  full diag
   1   -130.1475033 -0.130148E+03  0.335E-02    0.57       0.0  T
   2   -130.1474777  0.256261E-04  0.240E-02    0.57       1.0  T
   3   -130.1465950  0.882747E-03  0.742E-02    0.56       1.0  T
   4   -130.1475038 -0.908836E-03  0.402E-03    0.57       2.7  T
   5   -130.1475056 -0.179860E-05  0.126E-03    0.57       8.6  T
   6   -130.1475058 -0.195327E-06  0.522E-04    0.57      20.9  T
   7   -130.1475058 -0.178439E-07  0.318E-04    0.57      34.4  T
     SCC iter.                  ...        0 min,  0.211 sec
     gradient                   ...        0 min,  0.123 sec
 * total energy  :  -127.6348181 Eh     change       -0.3319946E-03 Eh
   gradient norm :     0.0049035 Eh/α   predicted    -0.2319242E-03 ( -30.14%)
   displ. norm   :     0.2128081 α      lambda       -0.3289101E-03
   maximum displ.:     0.1142773 α      in ANC's #12, #2, #18, ...

........................................................................
.............................. CYCLE   23 ..............................
........................................................................

 iter      E             dE          RMSdq      gap      omega  full diag
   1   -130.1512704 -0.130151E+03  0.501E-02    0.57       0.0  T
   2   -130.1512287  0.416671E-04  0.339E-02    0.57       1.0  T
   3   -130.1491543  0.207440E-02  0.113E-01    0.56       1.0  T
   4   -130.1512709 -0.211660E-02  0.446E-03    0.57       2.4  T
   5   -130.1512733 -0.243143E-05  0.130E-03    0.57       8.4  T
   6   -130.1512735 -0.180955E-06  0.583E-04    0.57      18.7  T
   7   -130.1512736 -0.277635E-07  0.290E-04    0.57      37.7  T
     SCC iter.                  ...        0 min,  0.205 sec
     gradient                   ...        0 min,  0.118 sec
 * total energy  :  -127.6350543 Eh     change       -0.2362041E-03 Eh
   gradient norm :     0.0039096 Eh/α   predicted    -0.1719162E-03 ( -27.22%)
   displ. norm   :     0.2790366 α      lambda       -0.2579250E-03
   maximum displ.:     0.1530801 α      in ANC's #12, #2, #9, ...

........................................................................
.............................. CYCLE   24 ..............................
........................................................................

 iter      E             dE          RMSdq      gap      omega  full diag
   1   -130.1515090 -0.130152E+03  0.610E-02    0.57       0.0  T
   2   -130.1514736  0.354173E-04  0.389E-02    0.57       1.0  T
   3   -130.1486950  0.277862E-02  0.131E-01    0.56       1.0  T
   4   -130.1515097 -0.281468E-02  0.394E-03    0.57       2.8  T
   5   -130.1515115 -0.180471E-05  0.116E-03    0.57       9.4  T
   6   -130.1515116 -0.149204E-06  0.524E-04    0.57      20.8  T
   7   -130.1515116 -0.205348E-07  0.219E-04    0.57      49.9  T
     SCC iter.                  ...        0 min,  0.205 sec
     gradient                   ...        0 min,  0.118 sec
 * total energy  :  -127.6352640 Eh     change       -0.2097262E-03 Eh
   gradient norm :     0.0068785 Eh/α   predicted    -0.1390039E-03 ( -33.72%)
   displ. norm   :     0.3731315 α      lambda       -0.3038365E-03
   maximum displ.:     0.1993877 α      in ANC's #12, #2, #9, ...

........................................................................
.............................. CYCLE   25 ..............................
........................................................................

 iter      E             dE          RMSdq      gap      omega  full diag
   1   -130.1492439 -0.130149E+03  0.780E-02    0.57       0.0  T
   2   -130.1492186  0.253044E-04  0.474E-02    0.57       1.0  T
   3   -130.1461914  0.302726E-02  0.136E-01    0.56       1.0  T
   4   -130.1492439 -0.305256E-02  0.459E-03    0.57       2.4  T
   5   -130.1492463 -0.240013E-05  0.137E-03    0.57       7.9  T
   6   -130.1492465 -0.232951E-06  0.596E-04    0.57      18.3  T
   7   -130.1492466 -0.186085E-07  0.276E-04    0.57      39.5  T
     SCC iter.                  ...        0 min,  0.212 sec
     gradient                   ...        0 min,  0.115 sec
 * total energy  :  -127.6355111 Eh     change       -0.2470844E-03 Eh
   gradient norm :     0.0067301 Eh/α   predicted    -0.1730698E-03 ( -29.96%)
   displ. norm   :     0.4094574 α      lambda       -0.2756099E-03
   maximum displ.:     0.2158851 α      in ANC's #12, #2, #1, ...

........................................................................
.............................. CYCLE   26 ..............................
........................................................................

 iter      E             dE          RMSdq      gap      omega  full diag
   1   -130.1465876 -0.130147E+03  0.827E-02    0.57       0.0  T
   2   -130.1465754  0.121949E-04  0.492E-02    0.57       1.0  T
   3   -130.1447017  0.187361E-02  0.107E-01    0.56       1.0  T
   4   -130.1465855 -0.188377E-02  0.567E-03    0.57       1.9  T
   5   -130.1465897 -0.415403E-05  0.146E-03    0.57       7.5  T
   6   -130.1465899 -0.274719E-06  0.638E-04    0.57      17.1  T
   7   -130.1465900 -0.173263E-07  0.318E-04    0.57      34.3  T
     SCC iter.                  ...        0 min,  0.206 sec
     gradient                   ...        0 min,  0.117 sec
 * total energy  :  -127.6357168 Eh     change       -0.2057141E-03 Eh
   gradient norm :     0.0043930 Eh/α   predicted    -0.1609089E-03 ( -21.78%)
   displ. norm   :     0.3261504 α      lambda       -0.1564678E-03
   maximum displ.:     0.1654493 α      in ANC's #12, #2, #1, ...

........................................................................
.............................. CYCLE   27 ..............................
........................................................................

 iter      E             dE          RMSdq      gap      omega  full diag
   1   -130.1460221 -0.130146E+03  0.627E-02    0.56       0.0  T
   2   -130.1460171  0.501815E-05  0.372E-02    0.56       1.0  T
   3   -130.1451853  0.831797E-03  0.713E-02    0.56       1.0  T
   4   -130.1460206 -0.835315E-03  0.450E-03    0.56       2.4  T
   5   -130.1460233 -0.266563E-05  0.102E-03    0.56      10.7  T
   6   -130.1460234 -0.122020E-06  0.500E-04    0.56      21.8  T
   7   -130.1460234 -0.125966E-07  0.235E-04    0.56      46.4  T
     SCC iter.                  ...        0 min,  0.206 sec
     gradient                   ...        0 min,  0.117 sec
 * total energy  :  -127.6358304 Eh     change       -0.1136309E-03 Eh
   gradient norm :     0.0027288 Eh/α   predicted    -0.8655718E-04 ( -23.83%)
   displ. norm   :     0.2119354 α      lambda       -0.9177697E-04
   maximum displ.:     0.1193846 α      in ANC's #2, #1, #12, ...

........................................................................
.............................. CYCLE   28 ..............................
........................................................................

 iter      E             dE          RMSdq      gap      omega  full diag
   1   -130.1474882 -0.130147E+03  0.372E-02    0.56       0.0  T
   2   -130.1474853  0.284909E-05  0.222E-02    0.56       1.0  T
   3   -130.1470649  0.420423E-03  0.505E-02    0.56       1.0  T
   4   -130.1474882 -0.423257E-03  0.214E-03    0.56       5.1  T
   5   -130.1474887 -0.478894E-06  0.448E-04    0.56      24.4  T
   6   -130.1474887 -0.833637E-08  0.318E-04    0.56      34.3  T
     SCC iter.                  ...        0 min,  0.179 sec
     gradient                   ...        0 min,  0.117 sec
 * total energy  :  -127.6359037 Eh     change       -0.7323062E-04 Eh
   gradient norm :     0.0024757 Eh/α   predicted    -0.4794983E-04 ( -34.52%)
   displ. norm   :     0.2037174 α      lambda       -0.9075870E-04
   maximum displ.:     0.1226875 α      in ANC's #2, #1, #12, ...

........................................................................
.............................. CYCLE   29 ..............................
........................................................................

 iter      E             dE          RMSdq      gap      omega  full diag
   1   -130.1494127 -0.130149E+03  0.332E-02    0.56       0.0  T
   2   -130.1494083  0.438541E-05  0.202E-02    0.56       1.0  T
   3   -130.1488711  0.537233E-03  0.569E-02    0.56       1.0  T
   4   -130.1494129 -0.541833E-03  0.161E-03    0.56       6.8  T
   5   -130.1494132 -0.229086E-06  0.357E-04    0.56      30.5  T
   6   -130.1494132 -0.123313E-08  0.272E-04    0.56      40.2  T
     SCC iter.                  ...        0 min,  0.177 sec
     gradient                   ...        0 min,  0.120 sec
 * total energy  :  -127.6359784 Eh     change       -0.7473320E-04 Eh
   gradient norm :     0.0029659 Eh/α   predicted    -0.4726294E-04 ( -36.76%)
   displ. norm   :     0.2420862 α      lambda       -0.9920710E-04
   maximum displ.:     0.1470597 α      in ANC's #2, #1, #11, ...

........................................................................
.............................. CYCLE   30 ..............................
........................................................................

 iter      E             dE          RMSdq      gap      omega  full diag
   1   -130.1505198 -0.130151E+03  0.384E-02    0.57       0.0  T
   2   -130.1505109  0.891798E-05  0.239E-02    0.57       1.0  T
   3   -130.1495914  0.919496E-03  0.746E-02    0.56       1.0  T
   4   -130.1505202 -0.928853E-03  0.171E-03    0.57       6.4  T
   5   -130.1505205 -0.277352E-06  0.385E-04    0.57      28.4  T
   6   -130.1505205  0.474927E-09  0.291E-04    0.57      37.4  T
     SCC iter.                  ...        0 min,  0.177 sec
     gradient                   ...        0 min,  0.121 sec
 * total energy  :  -127.6360621 Eh     change       -0.8374742E-04 Eh
   gradient norm :     0.0033105 Eh/α   predicted    -0.5251480E-04 ( -37.29%)
   displ. norm   :     0.2856577 α      lambda       -0.1097352E-03
   maximum displ.:     0.1735047 α      in ANC's #2, #1, #11, ...

........................................................................
.............................. CYCLE   31 ..............................
........................................................................

 iter      E             dE          RMSdq      gap      omega  full diag
   1   -130.1506204 -0.130151E+03  0.445E-02    0.57       0.0  T
   2   -130.1506088  0.116216E-04  0.277E-02    0.57       1.0  T
   3   -130.1494035  0.120529E-02  0.854E-02    0.56       1.0  T
   4   -130.1506210 -0.121751E-02  0.188E-03    0.57       5.8  T
   5   -130.1506213 -0.344161E-06  0.423E-04    0.57      25.8  T
   6   -130.1506213  0.208686E-08  0.320E-04    0.57      34.1  T
     SCC iter.                  ...        0 min,  0.179 sec
     gradient                   ...        0 min,  0.115 sec
 * total energy  :  -127.6361571 Eh     change       -0.9494753E-04 Eh
   gradient norm :     0.0031502 Eh/α   predicted    -0.5934502E-04 ( -37.50%)
   displ. norm   :     0.3369763 α      lambda       -0.1254768E-03
   maximum displ.:     0.2049163 α      in ANC's #2, #1, #11, ...

........................................................................
.............................. CYCLE   32 ..............................
........................................................................

 iter      E             dE          RMSdq      gap      omega  full diag
   1   -130.1499966 -0.130150E+03  0.515E-02    0.57       0.0  T
   2   -130.1499852  0.114461E-04  0.316E-02    0.57       1.0  T
   3   -130.1486524  0.133275E-02  0.899E-02    0.57       1.0  T
   4   -130.1499973 -0.134486E-02  0.201E-03    0.57       5.4  T
   5   -130.1499976 -0.382435E-06  0.456E-04    0.57      23.9  T
   6   -130.1499976  0.418197E-08  0.331E-04    0.57      33.0  T
     SCC iter.                  ...        0 min,  0.177 sec
     gradient                   ...        0 min,  0.123 sec
 * total energy  :  -127.6362673 Eh     change       -0.1102674E-03 Eh
   gradient norm :     0.0027657 Eh/α   predicted    -0.6986322E-04 ( -36.64%)
   displ. norm   :     0.4174258 α      lambda       -0.1500036E-03
   maximum displ.:     0.2539834 α      in ANC's #2, #1, #11, ...

........................................................................
.............................. CYCLE   33 ..............................
........................................................................

 iter      E             dE          RMSdq      gap      omega  full diag
   1   -130.1489313 -0.130149E+03  0.627E-02    0.58       0.0  T
   2   -130.1489210  0.103104E-04  0.379E-02    0.58       1.0  T
   3   -130.1475370  0.138397E-02  0.916E-02    0.57       1.0  T
   4   -130.1489320 -0.139500E-02  0.234E-03    0.58       4.7  T
   5   -130.1489325 -0.499405E-06  0.547E-04    0.58      19.9  T
   6   -130.1489325  0.177408E-08  0.356E-04    0.58      30.7  T
     SCC iter.                  ...        0 min,  0.184 sec
     gradient                   ...        0 min,  0.119 sec
 * total energy  :  -127.6363988 Eh     change       -0.1314224E-03 Eh
   gradient norm :     0.0027558 Eh/α   predicted    -0.8807316E-04 ( -32.98%)
   displ. norm   :     0.4909632 α      lambda       -0.1660581E-03
   maximum displ.:     0.2999364 α      in ANC's #2, #1, #11, ...

........................................................................
.............................. CYCLE   34 ..............................
........................................................................

 iter      E             dE          RMSdq      gap      omega  full diag
   1   -130.1477074 -0.130148E+03  0.723E-02    0.59       0.0  T
   2   -130.1477021  0.530002E-05  0.430E-02    0.59       1.0  T
   3   -130.1468457  0.856464E-03  0.722E-02    0.58       1.0  T
   4   -130.1477079 -0.862204E-03  0.277E-03    0.59       3.9  T
   5   -130.1477086 -0.772083E-06  0.648E-04    0.59      16.8  T
   6   -130.1477086  0.302910E-08  0.428E-04    0.59      25.5  T
     SCC iter.                  ...        0 min,  0.178 sec
     gradient                   ...        0 min,  0.116 sec
 * total energy  :  -127.6365425 Eh     change       -0.1437169E-03 Eh
   gradient norm :     0.0032049 Eh/α   predicted    -0.1030446E-03 ( -28.30%)
   displ. norm   :     0.5429338 α      lambda       -0.1695774E-03
   maximum displ.:     0.3338298 α      in ANC's #2, #1, #11, ...

........................................................................
.............................. CYCLE   35 ..............................
........................................................................

 iter      E             dE          RMSdq      gap      omega  full diag
   1   -130.1468096 -0.130147E+03  0.779E-02    0.59       0.0  T
   2   -130.1468089  0.734616E-06  0.458E-02    0.59       1.0  T
   3   -130.1465918  0.217066E-03  0.364E-02    0.59       1.0  T
   4   -130.1468088 -0.216965E-03  0.396E-03    0.59       2.8  T
   5   -130.1468107 -0.195564E-05  0.761E-04    0.59      14.3  T
   6   -130.1468107  0.143632E-08  0.558E-04    0.59      19.5  T
   7   -130.1468107 -0.214502E-07  0.236E-04    0.59      46.2  T
     SCC iter.                  ...        0 min,  0.206 sec
     gradient                   ...        0 min,  0.121 sec
 * total energy  :  -127.6366877 Eh     change       -0.1452332E-03 Eh
   gradient norm :     0.0035421 Eh/α   predicted    -0.1097886E-03 ( -24.41%)
   displ. norm   :     0.5833048 α      lambda       -0.1674721E-03
   maximum displ.:     0.3606884 α      in ANC's #2, #1, #9, ...

........................................................................
.............................. CYCLE   36 ..............................
........................................................................

 iter      E             dE          RMSdq      gap      omega  full diag
   1   -130.1465568 -0.130147E+03  0.813E-02    0.60       0.0  T
   2   -130.1465575 -0.689730E-06  0.476E-02    0.60       1.0  T
   3   -130.1465510  0.642476E-05  0.700E-03    0.60       1.6  T
   4   -130.1465474  0.363487E-05  0.802E-03    0.60       1.4  T
   5   -130.1465579 -0.104961E-04  0.696E-04    0.60      15.7  T
   6   -130.1465579  0.298189E-08  0.436E-04    0.60      25.0  T
   7   -130.1465579 -0.725717E-08  0.207E-04    0.60      52.6  T
     SCC iter.                  ...        0 min,  0.212 sec
     gradient                   ...        0 min,  0.123 sec
 * total energy  :  -127.6368307 Eh     change       -0.1429862E-03 Eh
   gradient norm :     0.0034700 Eh/α   predicted    -0.1122327E-03 ( -21.51%)
   displ. norm   :     0.6031003 α      lambda       -0.1628113E-03
   maximum displ.:     0.3741885 α      in ANC's #2, #1, #9, ...

........................................................................
.............................. CYCLE   37 ..............................
........................................................................

 iter      E             dE          RMSdq      gap      omega  full diag
   1   -130.1471676 -0.130147E+03  0.815E-02    0.60       0.0  T
   2   -130.1471663  0.134126E-05  0.477E-02    0.60       1.0  T
   3   -130.1468739  0.292391E-03  0.427E-02    0.61       1.0  T
   4   -130.1471667 -0.292807E-03  0.384E-03    0.60       2.8  T
   5   -130.1471688 -0.212351E-05  0.762E-04    0.60      14.3  T
   6   -130.1471688  0.696269E-08  0.586E-04    0.60      18.6  T
   7   -130.1471688 -0.277457E-07  0.223E-04    0.60      48.8  T
     SCC iter.                  ...        0 min,  0.206 sec
     gradient                   ...        0 min,  0.123 sec
 * total energy  :  -127.6369713 Eh     change       -0.1406013E-03 Eh
   gradient norm :     0.0030443 Eh/α   predicted    -0.1110198E-03 ( -21.04%)
   displ. norm   :     0.6152937 α      lambda       -0.1656569E-03
   maximum displ.:     0.3805538 α      in ANC's #2, #1, #9, ...

........................................................................
.............................. CYCLE   38 ..............................
........................................................................

 iter      E             dE          RMSdq      gap      omega  full diag
   1   -130.1484763 -0.130148E+03  0.812E-02    0.61       0.0  T
   2   -130.1484712  0.503522E-05  0.477E-02    0.61       1.0  T
   3   -130.1477295  0.741768E-03  0.680E-02    0.61       1.0  T
   4   -130.1484761 -0.746607E-03  0.326E-03    0.61       3.3  T
   5   -130.1484776 -0.153707E-05  0.891E-04    0.61      12.2  T
   6   -130.1484777 -0.387415E-07  0.603E-04    0.61      18.1  T
   7   -130.1484777 -0.237542E-07  0.250E-04    0.61      43.6  T
     SCC iter.                  ...        0 min,  0.206 sec
     gradient                   ...        0 min,  0.114 sec
 * total energy  :  -127.6371165 Eh     change       -0.1452306E-03 Eh
   gradient norm :     0.0027638 Eh/α   predicted    -0.1141904E-03 ( -21.37%)
   displ. norm   :     0.6440304 α      lambda       -0.1741876E-03
   maximum displ.:     0.3938433 α      in ANC's #2, #1, #9, ...

........................................................................
.............................. CYCLE   39 ..............................
........................................................................

 iter      E             dE          RMSdq      gap      omega  full diag
   1   -130.1496254 -0.130150E+03  0.845E-02    0.61       0.0  T
   2   -130.1496213  0.410820E-05  0.496E-02    0.61       1.0  T
   3   -130.1489900  0.631305E-03  0.630E-02    0.62       1.0  T
   4   -130.1496238 -0.633860E-03  0.419E-03    0.61       2.6  T
   5   -130.1496267 -0.291770E-05  0.109E-03    0.61      10.0  T
   6   -130.1496269 -0.109950E-06  0.600E-04    0.61      18.2  T
   7   -130.1496269 -0.861610E-08  0.298E-04    0.61      36.6  T
     SCC iter.                  ...        0 min,  0.213 sec
     gradient                   ...        0 min,  0.124 sec
 * total energy  :  -127.6372712 Eh     change       -0.1547118E-03 Eh
   gradient norm :     0.0029576 Eh/α   predicted    -0.1232250E-03 ( -20.35%)
   displ. norm   :     0.6675325 α      lambda       -0.1851400E-03
   maximum displ.:     0.4000147 α      in ANC's #2, #1, #9, ...

........................................................................
.............................. CYCLE   40 ..............................
........................................................................

 iter      E             dE          RMSdq      gap      omega  full diag
   1   -130.1509047 -0.130151E+03  0.880E-02    0.62       0.0  T
   2   -130.1509035  0.126151E-05  0.515E-02    0.62       1.0  T
   3   -130.1506242  0.279299E-03  0.424E-02    0.62       1.0  T
   4   -130.1509000 -0.275794E-03  0.586E-03    0.62       1.9  T
   5   -130.1509061 -0.611133E-05  0.118E-03    0.62       9.2  T
   6   -130.1509062 -0.136034E-06  0.619E-04    0.62      17.6  T
   7   -130.1509062 -0.751632E-08  0.292E-04    0.62      37.4  T
     SCC iter.                  ...        0 min,  0.206 sec
     gradient                   ...        0 min,  0.119 sec
 * total energy  :  -127.6374343 Eh     change       -0.1630263E-03 Eh
   gradient norm :     0.0032328 Eh/α   predicted    -0.1338235E-03 ( -17.91%)
   displ. norm   :     0.7095583 α      lambda       -0.1836061E-03
   maximum displ.:     0.4177055 α      in ANC's #2, #1, #9, ...

........................................................................
.............................. CYCLE   41 ..............................
........................................................................

 iter      E             dE          RMSdq      gap      omega  full diag
   1   -130.1503435 -0.130150E+03  0.943E-02    0.62       0.0  T
   2   -130.1503442 -0.671520E-06  0.553E-02    0.62       1.0  T
   3   -130.1503150  0.292072E-04  0.127E-02    0.62       1.0  T
   4   -130.1503312 -0.162449E-04  0.967E-03    0.62       1.1  T
   5   -130.1503450 -0.137565E-04  0.143E-03    0.62       7.6  T
   6   -130.1503451 -0.196900E-06  0.650E-04    0.62      16.8  T
   7   -130.1503452 -0.725439E-08  0.294E-04    0.62      37.1  T
     SCC iter.                  ...        0 min,  0.208 sec
     gradient                   ...        0 min,  0.120 sec
 * total energy  :  -127.6375935 Eh     change       -0.1592413E-03 Eh
   gradient norm :     0.0032652 Eh/α   predicted    -0.1380286E-03 ( -13.32%)
   displ. norm   :     0.6831613 α      lambda       -0.1815159E-03
   maximum displ.:     0.3813599 α      in ANC's #2, #1, #9, ...

........................................................................
.............................. CYCLE   42 ..............................
........................................................................

 iter      E             dE          RMSdq      gap      omega  full diag
   1   -130.1534008 -0.130153E+03  0.925E-02    0.63       0.0  T
   2   -130.1534013 -0.461719E-06  0.543E-02    0.63       1.0  T
   3   -130.1533315  0.697963E-04  0.198E-02    0.63       1.0  T
   4   -130.1533941 -0.625604E-04  0.793E-03    0.63       1.4  T
   5   -130.1534024 -0.837266E-05  0.120E-03    0.63       9.1  T
   6   -130.1534026 -0.116722E-06  0.677E-04    0.63      16.1  T
   7   -130.1534026 -0.178896E-07  0.274E-04    0.63      39.9  T
     SCC iter.                  ...        0 min,  0.208 sec
     gradient                   ...        0 min,  0.119 sec
 * total energy  :  -127.6377345 Eh     change       -0.1409818E-03 Eh
   gradient norm :     0.0027285 Eh/α   predicted    -0.1331160E-03 (  -5.58%)
   displ. norm   :     0.7126999 α      lambda       -0.1497351E-03
   maximum displ.:     0.4108239 α      in ANC's #2, #1, #9, ...
 * RMSD in coord.:     0.9545481 α      energy gain  -0.3811600E-02 Eh

generating ANC from model Hessian ...
Using Lindh-Hessian (1995)
 Shifting diagonal of input Hessian by    9.9038533971286848E-003
 Lowest  eigenvalues of input Hessian
    0.000000    0.000000    0.000000    0.000000    0.000000    0.000000
    0.010000    0.010040    0.010137    0.010242    0.010375    0.010629
    0.010931    0.010934    0.011138    0.011168    0.011409    0.011485
 Highest eigenvalues
    2.055058    2.062631    2.074450    2.079976    2.098039    2.125272


........................................................................
.............................. CYCLE   43 ..............................
........................................................................

 iter      E             dE          RMSdq      gap      omega  full diag
   1   -130.1464037 -0.130146E+03  0.961E-02    0.64       0.0  T
   2   -130.1463917  0.120596E-04  0.574E-02    0.64       1.0  T
   3   -130.1448501  0.154161E-02  0.963E-02    0.63       1.0  T
   4   -130.1464019 -0.155179E-02  0.582E-03    0.64       1.9  T
   5   -130.1464063 -0.446974E-05  0.150E-03    0.64       7.3  T
   6   -130.1464065 -0.213396E-06  0.646E-04    0.64      16.9  T
   7   -130.1464065  0.766136E-09  0.356E-04    0.64      30.6  T
     SCC iter.                  ...        0 min,  0.205 sec
     gradient                   ...        0 min,  0.114 sec
 * total energy  :  -127.6378333 Eh     change       -0.9883414E-04 Eh
   gradient norm :     0.0046839 Eh/α   predicted     0.0000000E+00 (-100.00%)
   displ. norm   :     0.0579046 α      lambda       -0.9935426E-04
   maximum displ.:     0.0227376 α      in ANC's #11, #5, #9, ...

........................................................................
.............................. CYCLE   44 ..............................
........................................................................

 iter      E             dE          RMSdq      gap      omega  full diag
   1   -130.1518380 -0.130152E+03  0.157E-02    0.64       0.0  T
   2   -130.1518369  0.103435E-05  0.982E-03    0.64       1.1  T
   3   -130.1517510  0.859760E-04  0.228E-02    0.64       1.0  T
   4   -130.1518369 -0.859501E-04  0.306E-03    0.64       3.6  T
   5   -130.1518382 -0.130975E-05  0.650E-04    0.64      16.8  T
   6   -130.1518383 -0.515847E-07  0.160E-04    0.64      68.4  T
   7   -130.1518383 -0.571276E-11  0.902E-05    0.64     121.0  T
     SCC iter.                  ...        0 min,  0.212 sec
     gradient                   ...        0 min,  0.116 sec
 * total energy  :  -127.6379054 Eh     change       -0.7208573E-04 Eh
   gradient norm :     0.0013753 Eh/α   predicted    -0.4984468E-04 ( -30.85%)
   displ. norm   :     0.1699782 α      lambda       -0.7742906E-04
   maximum displ.:     0.0724337 α      in ANC's #11, #9, #5, ...

........................................................................
.............................. CYCLE   45 ..............................
........................................................................

 iter      E             dE          RMSdq      gap      omega  full diag
   1   -130.1576239 -0.130158E+03  0.393E-02    0.64       0.0  T
   2   -130.1576204  0.352215E-05  0.238E-02    0.64       1.0  T
   3   -130.1572598  0.360540E-03  0.468E-02    0.65       1.0  T
   4   -130.1576209 -0.361094E-03  0.503E-03    0.64       2.2  T
   5   -130.1576247 -0.377372E-05  0.900E-04    0.64      12.1  T
   6   -130.1576248 -0.878526E-07  0.286E-04    0.64      38.2  T
   7   -130.1576248 -0.417799E-09  0.150E-04    0.64      72.7  T
     SCC iter.                  ...        0 min,  0.205 sec
     gradient                   ...        0 min,  0.113 sec
 * total energy  :  -127.6379782 Eh     change       -0.7274040E-04 Eh
   gradient norm :     0.0031454 Eh/α   predicted    -0.3921275E-04 ( -46.09%)
   displ. norm   :     0.1426815 α      lambda       -0.6779098E-04
   maximum displ.:     0.0675427 α      in ANC's #9, #11, #5, ...

........................................................................
.............................. CYCLE   46 ..............................
........................................................................

 iter      E             dE          RMSdq      gap      omega  full diag
   1   -130.1574201 -0.130157E+03  0.322E-02    0.64       0.0  T
   2   -130.1574201 -0.609362E-07  0.189E-02    0.64       1.0  T
   3   -130.1574155  0.462609E-05  0.528E-03    0.64       2.1  T
   4   -130.1574184 -0.289855E-05  0.345E-03    0.64       3.2  T
   5   -130.1574203 -0.186228E-05  0.438E-04    0.64      24.9  T
   6   -130.1574203 -0.166189E-07  0.229E-04    0.64      47.7  T
   7   -130.1574203 -0.189274E-08  0.683E-05    0.64     159.9  T
     SCC iter.                  ...        0 min,  0.206 sec
     gradient                   ...        0 min,  0.116 sec
 * total energy  :  -127.6380415 Eh     change       -0.6332798E-04 Eh
   gradient norm :     0.0031229 Eh/α   predicted    -0.3464688E-04 ( -45.29%)
   displ. norm   :     0.4072055 α      lambda       -0.1942051E-03
   maximum displ.:     0.2040123 α      in ANC's #9, #11, #5, ...

........................................................................
.............................. CYCLE   47 ..............................
........................................................................

 iter      E             dE          RMSdq      gap      omega  full diag
   1   -130.1533592 -0.130153E+03  0.910E-02    0.64       0.0  T
   2   -130.1533592 -0.371916E-07  0.534E-02    0.64       1.0  T
   3   -130.1532476  0.111639E-03  0.265E-02    0.64       1.0  T
   4   -130.1533552 -0.107595E-03  0.602E-03    0.64       1.8  T
   5   -130.1533606 -0.546264E-05  0.118E-03    0.64       9.2  T
   6   -130.1533607 -0.129212E-06  0.683E-04    0.64      16.0  T
   7   -130.1533608 -0.288346E-07  0.211E-04    0.64      51.8  T
     SCC iter.                  ...        0 min,  0.209 sec
     gradient                   ...        0 min,  0.123 sec
 * total energy  :  -127.6381988 Eh     change       -0.1573382E-03 Eh
   gradient norm :     0.0024100 Eh/α   predicted    -0.1132089E-03 ( -28.05%)
   displ. norm   :     0.4148938 α      lambda       -0.1465847E-03
   maximum displ.:     0.2190964 α      in ANC's #9, #11, #5, ...

........................................................................
.............................. CYCLE   48 ..............................
........................................................................

 iter      E             dE          RMSdq      gap      omega  full diag
   1   -130.1480995 -0.130148E+03  0.908E-02    0.64       0.0  T
   2   -130.1480962  0.324690E-05  0.535E-02    0.64       1.0  T
   3   -130.1475633  0.532924E-03  0.573E-02    0.64       1.0  T
   4   -130.1481000 -0.536670E-03  0.340E-03    0.64       3.2  T
   5   -130.1481012 -0.125735E-05  0.896E-04    0.64      12.2  T
   6   -130.1481012 -0.960446E-08  0.693E-04    0.64      15.7  T
   7   -130.1481013 -0.431193E-07  0.243E-04    0.64      44.8  T
     SCC iter.                  ...        0 min,  0.205 sec
     gradient                   ...        0 min,  0.117 sec
 * total energy  :  -127.6382976 Eh     change       -0.9879696E-04 Eh
   gradient norm :     0.0049053 Eh/α   predicted    -0.8591062E-04 ( -13.04%)
   displ. norm   :     0.1907985 α      lambda       -0.8938390E-04
   maximum displ.:     0.1057757 α      in ANC's #9, #11, #5, ...

........................................................................
.............................. CYCLE   49 ..............................
........................................................................

 iter      E             dE          RMSdq      gap      omega  full diag
   1   -130.1468115 -0.130147E+03  0.399E-02    0.64       0.0  T
   2   -130.1468085  0.301443E-05  0.239E-02    0.64       1.0  T
   3   -130.1464606  0.347963E-03  0.461E-02    0.63       1.0  T
   4   -130.1468119 -0.351289E-03  0.128E-03    0.64       8.5  T
   5   -130.1468120 -0.172264E-06  0.386E-04    0.64      28.3  T
   6   -130.1468120 -0.136697E-08  0.276E-04    0.64      39.5  T
     SCC iter.                  ...        0 min,  0.177 sec
     gradient                   ...        0 min,  0.115 sec
 * total energy  :  -127.6383779 Eh     change       -0.8026083E-04 Eh
   gradient norm :     0.0048973 Eh/α   predicted    -0.4632694E-04 ( -42.28%)
   displ. norm   :     0.4092683 α      lambda       -0.2892467E-03
   maximum displ.:     0.2353722 α      in ANC's #9, #11, #5, ...

........................................................................
.............................. CYCLE   50 ..............................
........................................................................

 iter      E             dE          RMSdq      gap      omega  full diag
   1   -130.1473663 -0.130147E+03  0.858E-02    0.64       0.0  T
   2   -130.1473485  0.177218E-04  0.517E-02    0.64       1.0  T
   3   -130.1453776  0.197091E-02  0.109E-01    0.63       1.0  T
   4   -130.1473673 -0.198965E-02  0.344E-03    0.64       3.2  T
   5   -130.1473688 -0.151637E-05  0.109E-03    0.64      10.0  T
   6   -130.1473689 -0.928747E-07  0.633E-04    0.64      17.2  T
   7   -130.1473689 -0.230444E-07  0.246E-04    0.64      44.4  T
     SCC iter.                  ...        0 min,  0.207 sec
     gradient                   ...        0 min,  0.116 sec
 * total energy  :  -127.6386050 Eh     change       -0.2271407E-03 Eh
   gradient norm :     0.0039662 Eh/α   predicted    -0.1688719E-03 ( -25.65%)
   displ. norm   :     0.6076623 α      lambda       -0.2888746E-03
   maximum displ.:     0.3659392 α      in ANC's #9, #11, #5, ...

........................................................................
.............................. CYCLE   51 ..............................
........................................................................

 iter      E             dE          RMSdq      gap      omega  full diag
   1   -130.1447816 -0.130145E+03  0.127E-01    0.63       0.0  T
   2   -130.1447717  0.986518E-05  0.753E-02    0.64       1.0  T
   3   -130.1432630  0.150871E-02  0.951E-02    0.63       1.0  T
   4   -130.1447835 -0.152048E-02  0.420E-03    0.63       2.6  T
   5   -130.1447854 -0.190792E-05  0.123E-03    0.63       8.9  T
   6   -130.1447854 -0.399959E-07  0.819E-04    0.63      13.3  T
   7   -130.1447855 -0.349013E-07  0.388E-04    0.63      28.1  T
     SCC iter.                  ...        0 min,  0.204 sec
     gradient                   ...        0 min,  0.115 sec
 * total energy  :  -127.6388170 Eh     change       -0.2119653E-03 Eh
   gradient norm :     0.0071088 Eh/α   predicted    -0.1977844E-03 (  -6.69%)
   displ. norm   :     0.4058406 α      lambda       -0.2949026E-03
   maximum displ.:     0.2471659 α      in ANC's #9, #4, #5, ...

........................................................................
.............................. CYCLE   52 ..............................
........................................................................

 iter      E             dE          RMSdq      gap      omega  full diag
   1   -130.1492572 -0.130149E+03  0.892E-02    0.64       0.0  T
   2   -130.1492582 -0.100258E-05  0.523E-02    0.64       1.0  T
   3   -130.1492539  0.426964E-05  0.645E-03    0.64       1.7  T
   4   -130.1492585 -0.461622E-05  0.188E-03    0.64       5.8  T
   5   -130.1492584  0.157435E-06  0.198E-03    0.64       5.5  T
   6   -130.1492589 -0.505816E-06  0.819E-04    0.64      13.3  T
   7   -130.1492589 -0.749529E-07  0.295E-04    0.64      37.0  T
     SCC iter.                  ...        0 min,  0.209 sec
     gradient                   ...        0 min,  0.119 sec
 * total energy  :  -127.6390211 Eh     change       -0.2041341E-03 Eh
   gradient norm :     0.0049737 Eh/α   predicted    -0.1717379E-03 ( -15.87%)
   displ. norm   :     0.4765301 α      lambda       -0.2117502E-03
   maximum displ.:     0.3048995 α      in ANC's #9, #4, #5, ...

........................................................................
.............................. CYCLE   53 ..............................
........................................................................

 iter      E             dE          RMSdq      gap      omega  full diag
   1   -130.1483129 -0.130148E+03  0.998E-02    0.64       0.0  T
   2   -130.1483120  0.951464E-06  0.586E-02    0.64       1.0  T
   3   -130.1480267  0.285300E-03  0.428E-02    0.64       1.0  T
   4   -130.1483037 -0.277041E-03  0.834E-03    0.64       1.3  T
   5   -130.1483153 -0.115910E-04  0.101E-03    0.64      10.8  T
   6   -130.1483154 -0.450130E-07  0.610E-04    0.64      17.9  T
   7   -130.1483154 -0.205291E-07  0.190E-04    0.64      57.3  T
     SCC iter.                  ...        0 min,  0.205 sec
     gradient                   ...        0 min,  0.117 sec
 * total energy  :  -127.6391793 Eh     change       -0.1581447E-03 Eh
   gradient norm :     0.0066213 Eh/α   predicted    -0.1299184E-03 ( -17.85%)
   displ. norm   :     0.4297131 α      lambda       -0.4107843E-03
   maximum displ.:     0.2668342 α      in ANC's #9, #4, #12, ...

........................................................................
.............................. CYCLE   54 ..............................
........................................................................

 iter      E             dE          RMSdq      gap      omega  full diag
   1   -130.1566115 -0.130157E+03  0.941E-02    0.65       0.0  T
   2   -130.1565520  0.595467E-04  0.588E-02    0.64       1.0  T
   3   -130.1529415  0.361047E-02  0.150E-01    0.67       1.0  T
   4   -130.1566131 -0.367159E-02  0.669E-03    0.65       1.6  T
   5   -130.1566182 -0.504308E-05  0.151E-03    0.65       7.2  T
   6   -130.1566184 -0.266502E-06  0.638E-04    0.65      17.1  T
   7   -130.1566184 -0.174137E-08  0.349E-04    0.65      31.3  T
     SCC iter.                  ...        0 min,  0.205 sec
     gradient                   ...        0 min,  0.116 sec
 * total energy  :  -127.6394185 Eh     change       -0.2392282E-03 Eh
   gradient norm :     0.0044245 Eh/α   predicted    -0.2433295E-03 (   1.71%)
   displ. norm   :     0.5402562 α      lambda       -0.2437423E-03
   maximum displ.:     0.3511365 α      in ANC's #9, #4, #5, ...

........................................................................
.............................. CYCLE   55 ..............................
........................................................................

 iter      E             dE          RMSdq      gap      omega  full diag
[...]
     6   6 C        2.963     0.004    27.928     8.668
     7   6 C        2.930    -0.041    29.013     8.833
     8   6 C        2.986     0.010    27.785     8.647
     9   6 C        2.979     0.006    27.892     8.663
    10   1 H        0.926     0.036     2.505     2.475
    11   6 C        2.922    -0.038    28.954     8.824
    12   6 C        2.918    -0.031    28.776     8.797
    13   6 C        2.916    -0.030    28.757     8.794
    14   6 C        2.924    -0.031    28.762     8.795
    15   1 H        0.926     0.036     2.502     2.473
    16   1 H        0.926     0.029     2.601     2.522
    17   1 H        0.926     0.031     2.578     2.511
    18   1 H        0.926     0.035     2.518     2.482
    19   6 C        2.975    -0.005    28.137     8.701
    20   6 C        2.924    -0.030    28.760     8.795
    21   6 C        2.917    -0.029    28.719     8.788
    22   6 C        2.920    -0.029    28.723     8.789
    23   6 C        2.917    -0.029    28.718     8.788
    24   6 C        2.924    -0.032    28.790     8.799
    25   6 C        2.979     0.014    27.684     8.631
    26   1 H        0.926     0.034     2.525     2.485
    27   1 H        0.926     0.033     2.550     2.497
    28   1 H        0.926     0.032     2.559     2.501
    29   1 H        0.926     0.031     2.568     2.506
    30   1 H        0.926     0.030     2.581     2.513
    31   6 C        2.924    -0.029    28.736     8.791
    32   6 C        2.918    -0.029    28.716     8.788
    33   6 C        2.920    -0.030    28.749     8.793
    34   6 C        2.917    -0.029    28.721     8.788
    35   6 C        2.923    -0.032    28.796     8.800
    36   6 C        2.977     0.018    27.599     8.617
    37   1 H        0.926     0.032     2.565     2.504
    38   1 H        0.926     0.032     2.557     2.500
    39   1 H        0.926     0.031     2.566     2.505
    40   1 H        0.926     0.031     2.568     2.506
    41   1 H        0.926     0.030     2.585     2.514
    42   6 C        2.922    -0.036    28.889     8.814
    43   6 C        2.918    -0.030    28.754     8.793
    44   6 C        2.918    -0.032    28.796     8.800
    45   6 C        2.922    -0.032    28.799     8.800
    46   1 H        0.926     0.030     2.580     2.512
    47   1 H        0.926     0.029     2.594     2.518
    48   1 H        0.926     0.030     2.579     2.511
    49   1 H        0.926     0.043     2.414     2.430
    50   6 C        2.972     0.007    27.856     8.657
    51   6 C        2.982     0.003    27.956     8.673
    52   6 C        2.979     0.008    27.830     8.653
    53   6 C        3.069    -0.016    28.345     8.730
    54   6 C        3.059    -0.008    28.169     8.704
    55   6 C        3.086    -0.004    28.035     8.680
    56   6 C        3.053    -0.007    28.137     8.699
    57   6 C        3.043    -0.011    28.238     8.716
    58   6 C        2.912    -0.034    28.859     8.809
    59   6 C        2.920    -0.034    28.845     8.807
    60   6 C        2.920    -0.036    28.905     8.816
    61   6 C        2.913    -0.032    28.797     8.800
    62   1 H        0.926     0.028     2.622     2.532
    63   1 H        0.926     0.024     2.670     2.555
    64   1 H        0.926     0.024     2.673     2.557
    65   1 H        0.926     0.028     2.615     2.529
    66   6 C        2.925    -0.034    28.836     8.806
    67   6 C        2.918    -0.030    28.751     8.793
    68   6 C        2.920    -0.032    28.803     8.801
    69   6 C        2.918    -0.030    28.748     8.792
    70   6 C        2.924    -0.032    28.792     8.799
    71   6 C        2.971     0.018    27.603     8.618
    72   1 H        0.926     0.032     2.563     2.503
    73   1 H        0.926     0.027     2.629     2.536
    74   1 H        0.926     0.027     2.636     2.539
    75   1 H        0.926     0.027     2.624     2.533
    76   1 H        0.926     0.030     2.589     2.516
    77   6 C        2.922    -0.039    28.981     8.828
    78   6 C        2.917    -0.031    28.768     8.795
    79   6 C        2.917    -0.035    28.867     8.811
    80   6 C        2.922    -0.034    28.850     8.808
    81   1 H        0.926     0.034     2.524     2.484
    82   1 H        0.926     0.026     2.640     2.541
    83   1 H        0.926     0.025     2.661     2.551
    84   1 H        0.926     0.028     2.613     2.528

 Mol. C6AA /au·bohr⁶  :     108110.530341
 Mol. C8AA /au·bohr⁸  :    2791087.638053
 Mol. α(0) /au        :        535.410875


Wiberg/Mayer (AO) data.
largest (>0.10) Wiberg bond orders for each atom

 ---------------------------------------------------------------------------
     #   Z sym  total        # sym  WBO       # sym  WBO       # sym  WBO
 ---------------------------------------------------------------------------
     1   6 C    3.919 --     5 C    1.374    50 C    1.208    51 C    1.123
     2   6 C    3.978 --    45 C    1.362     3 C    1.308    50 C    1.106
     3   6 C    3.977 --    42 C    1.359     2 C    1.308     4 C    1.111
     4   6 C    3.970 --     7 C    1.479     5 C    1.184     3 C    1.111
     5   6 C    3.920 --     1 C    1.374     4 C    1.184     8 C    1.133
     6   6 C    3.983 --    19 C    1.409     7 C    1.256     9 C    1.117
     7   6 C    3.896 --     4 C    1.479     6 C    1.256    10 H    0.956
     8   6 C    3.981 --    14 C    1.333     9 C    1.305     5 C    1.133
     9   6 C    3.968 --    11 C    1.347     8 C    1.305     6 C    1.117
    10   1 H    0.997 --     7 C    0.956
    11   6 C    3.986 --    12 C    1.492     9 C    1.347    15 H    0.959
                            14 C    0.106
    12   6 C    3.974 --    11 C    1.492    13 C    1.373    16 H    0.971
    13   6 C    3.984 --    14 C    1.498    12 C    1.373    17 H    0.970
    14   6 C    3.979 --    13 C    1.498     8 C    1.333    18 H    0.966
                            11 C    0.106
    15   1 H    0.998 --    11 C    0.959
    16   1 H    0.998 --    12 C    0.971
    17   1 H    0.998 --    13 C    0.970
    18   1 H    0.998 --    14 C    0.966
    19   6 C    3.788 --     6 C    1.409    25 C    1.102    36 C    1.074
    20   6 C    3.962 --    21 C    1.464    25 C    1.350    26 H    0.968
                            23 C    0.102
    21   6 C    3.991 --    20 C    1.464    22 C    1.425    27 H    0.970
                            24 C    0.102
    22   6 C    3.957 --    23 C    1.425    21 C    1.425    28 H    0.972
    23   6 C    3.991 --    24 C    1.464    22 C    1.425    29 H    0.970
                            20 C    0.102
    24   6 C    3.954 --    23 C    1.464    25 C    1.356    30 H    0.969
                            21 C    0.102
    25   6 C    3.987 --    24 C    1.356    20 C    1.350    19 C    1.102
    26   1 H    0.999 --    20 C    0.968
    27   1 H    0.998 --    21 C    0.970
    28   1 H    0.999 --    22 C    0.972
    29   1 H    0.998 --    23 C    0.970
    30   1 H    0.999 --    24 C    0.969
    31   6 C    3.970 --    32 C    1.464    36 C    1.356    37 H    0.970
                            34 C    0.106
    32   6 C    3.991 --    31 C    1.464    33 C    1.423    38 H    0.970
                            35 C    0.103
    33   6 C    3.970 --    34 C    1.433    32 C    1.423    39 H    0.972
                            36 C    0.101
    34   6 C    3.991 --    35 C    1.454    33 C    1.433    40 H    0.970
                            31 C    0.106
    35   6 C    3.965 --    34 C    1.454    36 C    1.371    41 H    0.970
                            32 C    0.103
    36   6 C    3.986 --    35 C    1.371    31 C    1.356    19 C    1.074
                            33 C    0.101
    37   1 H    0.999 --    31 C    0.970
    38   1 H    0.998 --    32 C    0.970
    39   1 H    0.999 --    33 C    0.972
    40   1 H    0.998 --    34 C    0.970
    41   1 H    0.999 --    35 C    0.970
    42   6 C    3.985 --    43 C    1.475     3 C    1.359    46 H    0.964
                            45 C    0.104
    43   6 C    3.981 --    42 C    1.475    44 C    1.395    47 H    0.971
    44   6 C    3.981 --    45 C    1.473    43 C    1.395    48 H    0.971
    45   6 C    3.987 --    44 C    1.473     2 C    1.362    49 H    0.963
                            42 C    0.104
    46   1 H    0.999 --    42 C    0.964
    47   1 H    0.998 --    43 C    0.971
    48   1 H    0.998 --    44 C    0.971
    49   1 H    0.998 --    45 C    0.963
    50   6 C    3.963 --    54 C    1.422     1 C    1.208     2 C    1.106
    51   6 C    3.973 --    80 C    1.347    52 C    1.294     1 C    1.123
    52   6 C    3.970 --    77 C    1.341    51 C    1.294    53 C    1.146
    53   6 C    3.979 --    57 C    1.431    54 C    1.157    52 C    1.146
    54   6 C    3.887 --    50 C    1.422    53 C    1.157    56 C    1.103
    55   6 C    3.968 --    58 C    1.386    56 C    1.254    57 C    1.125
    56   6 C    3.966 --    61 C    1.407    55 C    1.254    54 C    1.103
    57   6 C    3.822 --    53 C    1.431    55 C    1.125    71 C    1.069
    58   6 C    3.950 --    59 C    1.434    55 C    1.386    62 H    0.967
    59   6 C    3.956 --    58 C    1.434    60 C    1.425    63 H    0.972
    60   6 C    3.958 --    59 C    1.425    61 C    1.423    64 H    0.972
    61   6 C    3.965 --    60 C    1.423    56 C    1.407    65 H    0.965
    62   1 H    0.999 --    58 C    0.967
    63   1 H    0.999 --    59 C    0.972
    64   1 H    0.999 --    60 C    0.972
    65   1 H    0.999 --    61 C    0.965
    66   6 C    3.971 --    67 C    1.451    71 C    1.377    72 H    0.969
                            69 C    0.106
    67   6 C    3.991 --    66 C    1.451    68 C    1.435    73 H    0.971
                            70 C    0.107
    68   6 C    3.979 --    67 C    1.435    69 C    1.428    74 H    0.972
                            71 C    0.103
    69   6 C    3.991 --    70 C    1.458    68 C    1.428    75 H    0.971
                            66 C    0.106
    70   6 C    3.974 --    69 C    1.458    71 C    1.369    76 H    0.970
                            67 C    0.107
    71   6 C    3.987 --    66 C    1.377    70 C    1.369    57 C    1.069
                            68 C    0.103
    72   1 H    0.999 --    66 C    0.969
    73   1 H    0.998 --    67 C    0.971
    74   1 H    0.999 --    68 C    0.972
    75   1 H    0.998 --    69 C    0.971
    76   1 H    0.999 --    70 C    0.970
    77   6 C    3.980 --    78 C    1.488    52 C    1.341    81 H    0.962
                            80 C    0.104
    78   6 C    3.976 --    77 C    1.488    79 C    1.380    82 H    0.971
    79   6 C    3.978 --    80 C    1.487    78 C    1.380    83 H    0.971
    80   6 C    3.979 --    79 C    1.487    51 C    1.347    84 H    0.964
                            77 C    0.104
    81   1 H    0.998 --    77 C    0.962
    82   1 H    0.998 --    78 C    0.971
    83   1 H    0.999 --    79 C    0.971
    84   1 H    0.999 --    80 C    0.964
 ---------------------------------------------------------------------------

Topologies differ in total number of bonds
Writing topology from bond orders to xtbtopo.mol

molecular dipole:
                 x           y           z       tot (Debye)
 q only:        0.604      -0.415      -1.001
   full:        0.620      -0.411      -1.054       3.278
molecular quadrupole (traceless):
                xx          xy          yy          xz          yz          zz
 q only:       -2.821      -2.793      -3.751      -3.770       1.542       6.572
  q+dip:       -3.088     -10.728     -13.527      -6.968       4.346      16.615
   full:       -3.599      -4.965      -6.373      -4.963       2.903       9.972

           -------------------------------------------------
          |                Geometry Summary                 |
           -------------------------------------------------

      molecular mass/u    :      656.8123708
   center of mass at/Å    :        0.3737061      -0.4931079      -0.6757790
  moments of inertia/u·Å² :        0.4638703E+04   0.1529820E+05   0.1819375E+05
rotational constants/cm⁻¹ :        0.3634126E-02   0.1101935E-02   0.9265615E-03

 * 84 selected distances

     #   Z          #   Z                                           value/Å
     2   6 C        3   6 C                                       1.4080292
     1   6 C        5   6 C                                       1.3990497
     4   6 C        5   6 C                                       1.4296813
     4   6 C        7   6 C                                       1.3720965
     6   6 C        7   6 C                                       1.4184906
     8   6 C        9   6 C                                       1.4136626
     7   6 C       10   1 H                                       1.0792948
     9   6 C       11   6 C                                       1.4017020
    11   6 C       12   6 C                                       1.3752754
    12   6 C       13   6 C                                       1.3920473
     8   6 C       14   6 C                                       1.4033066
    13   6 C       14   6 C                                       1.3725601
    11   6 C       15   1 H                                       1.0766013 (min)
    12   6 C       16   1 H                                       1.0799132
    13   6 C       17   1 H                                       1.0795797
    14   6 C       18   1 H                                       1.0793914
     6   6 C       19   6 C                                       1.3952414
    20   6 C       21   6 C                                       1.3800983
    21   6 C       22   6 C                                       1.3862393
    22   6 C       23   6 C                                       1.3861676
    23   6 C       24   6 C                                       1.3803695
    20   6 C       25   6 C                                       1.4003266
    24   6 C       25   6 C                                       1.3993812
    20   6 C       26   1 H                                       1.0805203
    21   6 C       27   1 H                                       1.0802693
    22   6 C       28   1 H                                       1.0797623
    23   6 C       29   1 H                                       1.0803081
    24   6 C       30   1 H                                       1.0804893
    31   6 C       32   6 C                                       1.3799362
    32   6 C       33   6 C                                       1.3868785
    33   6 C       34   6 C                                       1.3853531
    34   6 C       35   6 C                                       1.3818777
    31   6 C       36   6 C                                       1.3987953
    35   6 C       36   6 C                                       1.3961995
    31   6 C       37   1 H                                       1.0805470
    32   6 C       38   1 H                                       1.0801721
    33   6 C       39   1 H                                       1.0797612
    34   6 C       40   1 H                                       1.0802724
    35   6 C       41   1 H                                       1.0807154
     3   6 C       42   6 C                                       1.3976123
    42   6 C       43   6 C                                       1.3774238
    43   6 C       44   6 C                                       1.3892917
     2   6 C       45   6 C                                       1.3971242
    44   6 C       45   6 C                                       1.3777586
    42   6 C       46   1 H                                       1.0792434
    43   6 C       47   1 H                                       1.0801215
    44   6 C       48   1 H                                       1.0798891
    45   6 C       49   1 H                                       1.0780977
     1   6 C       50   6 C                                       1.4338834
    51   6 C       52   6 C                                       1.4134797
    52   6 C       53   6 C                                       1.4344545
    50   6 C       54   6 C                                       1.3846719
    53   6 C       54   6 C                                       1.4436985 (max)
    55   6 C       56   6 C                                       1.4180945
    53   6 C       57   6 C                                       1.3869042
    55   6 C       58   6 C                                       1.3865005
    58   6 C       59   6 C                                       1.3856225
    59   6 C       60   6 C                                       1.3878676
    56   6 C       61   6 C                                       1.3850527
    60   6 C       61   6 C                                       1.3877072
    58   6 C       62   1 H                                       1.0802112
    59   6 C       63   1 H                                       1.0804722
    60   6 C       64   1 H                                       1.0803346
    61   6 C       65   1 H                                       1.0800281
    66   6 C       67   6 C                                       1.3823793
    67   6 C       68   6 C                                       1.3846842
    68   6 C       69   6 C                                       1.3856554
    69   6 C       70   6 C                                       1.3810725
    66   6 C       71   6 C                                       1.3950628
    70   6 C       71   6 C                                       1.3965361
    66   6 C       72   1 H                                       1.0802444
    67   6 C       73   1 H                                       1.0806879
    68   6 C       74   1 H                                       1.0801049
    69   6 C       75   1 H                                       1.0803005
    70   6 C       76   1 H                                       1.0808294
    52   6 C       77   6 C                                       1.4005317
    77   6 C       78   6 C                                       1.3749398
    78   6 C       79   6 C                                       1.3909237
    51   6 C       80   6 C                                       1.4015885
    79   6 C       80   6 C                                       1.3749905
    77   6 C       81   1 H                                       1.0779515
    78   6 C       82   1 H                                       1.0801174
    79   6 C       83   1 H                                       1.0800098
    80   6 C       84   1 H                                       1.0786362

 * 2 distinct bonds (by element types)

   Z      Z             #   av. dist./Å        max./Å        min./Å
   1 H    6 C          32     1.0798399     1.0808294     1.0766013
   6 C    6 C          52     1.3941977     1.4436985     1.3720965


optimized geometry written to: xtbopt.xyz


           -------------------------------------------------
          | TOTAL ENERGY             -127.640070667907 Eh   |
          | GRADIENT NORM               0.000806701675 Eh/α |
          | HOMO-LUMO GAP               0.645042669933 eV   |
           -------------------------------------------------

------------------------------------------------------------------------
 * finished run on 2024/09/24 at 23:59:30.586     
------------------------------------------------------------------------
 total:
 * wall-time:     0 d,  0 h,  0 min, 28.263 sec
 *  cpu-time:     0 d,  0 h,  2 min, 13.961 sec
 * ratio c/w:     4.740 speedup
 SCF:
 * wall-time:     0 d,  0 h,  0 min,  0.864 sec
 *  cpu-time:     0 d,  0 h,  0 min,  3.786 sec
 * ratio c/w:     4.380 speedup
 ANC optimizer:
 * wall-time:     0 d,  0 h,  0 min, 27.218 sec
 *  cpu-time:     0 d,  0 h,  2 min,  9.633 sec
 * ratio c/w:     4.763 speedup

