 Entering Gaussian System, Link 0=g16
 Initial command:
 /gpfs/research/software/gaussian16/amd/g16/l1.exe "/gpfs/home/gdb20/code/input_macros/temp/oh_radical_m06-2x_6-31++Gdp/Gau-3877495.inp" -scrdir="/gpfs/home/gdb20/code/input_macros/temp/oh_radical_m06-2x_6-31++Gdp/"
 Entering Link 1 = /gpfs/research/software/gaussian16/amd/g16/l1.exe PID=   3877496.
  
 Copyright (c) 1988-2019, Gaussian, Inc.  All Rights Reserved.
  
 This is part of the Gaussian(R) 16 program.  It is based on
 the Gaussian(R) 09 system (copyright 2009, Gaussian, Inc.),
 the Gaussian(R) 03 system (copyright 2003, Gaussian, Inc.),
 the Gaussian(R) 98 system (copyright 1998, Gaussian, Inc.),
 the Gaussian(R) 94 system (copyright 1995, Gaussian, Inc.),
 the Gaussian 92(TM) system (copyright 1992, Gaussian, Inc.),
 the Gaussian 90(TM) system (copyright 1990, Gaussian, Inc.),
 the Gaussian 88(TM) system (copyright 1988, Gaussian, Inc.),
 the Gaussian 86(TM) system (copyright 1986, Carnegie Mellon
 University), and the Gaussian 82(TM) system (copyright 1983,
 Carnegie Mellon University). Gaussian is a federally registered
 trademark of Gaussian, Inc.
  
 This software contains proprietary and confidential information,
 including trade secrets, belonging to Gaussian, Inc.
  
 This software is provided under written license and may be
 used, copied, transmitted, or stored only in accord with that
 written license.
  
 The following legend is applicable only to US Government
 contracts under FAR:
  
                    RESTRICTED RIGHTS LEGEND
  
 Use, reproduction and disclosure by the US Government is
 subject to restrictions as set forth in subparagraphs (a)
 and (c) of the Commercial Computer Software - Restricted
 Rights clause in FAR 52.227-19.
  
 Gaussian, Inc.
 340 Quinnipiac St., Bldg. 40, Wallingford CT 06492
  
  
 ---------------------------------------------------------------
 Warning -- This program may not be used in any manner that
 competes with the business of Gaussian, Inc. or will provide
 assistance to any competitor of Gaussian, Inc.  The licensee
 of this program is prohibited from giving any competitor of
 Gaussian, Inc. access to this program.  By using this program,
 the user acknowledges that Gaussian, Inc. is engaged in the
 business of creating and licensing software in the field of
 computational chemistry and represents and warrants to the
 licensee that it is not a competitor of Gaussian, Inc. and that
 it will not use this program in any manner prohibited above.
 ---------------------------------------------------------------
  

 Cite this work as:
 Gaussian 16, Revision C.01,
 M. J. Frisch, G. W. Trucks, H. B. Schlegel, G. E. Scuseria, 
 M. A. Robb, J. R. Cheeseman, G. Scalmani, V. Barone, 
 G. A. Petersson, H. Nakatsuji, X. Li, M. Caricato, A. V. Marenich, 
 J. Bloino, B. G. Janesko, R. Gomperts, B. Mennucci, H. P. Hratchian, 
 J. V. Ortiz, A. F. Izmaylov, J. L. Sonnenberg, D. Williams-Young, 
 F. Ding, F. Lipparini, F. Egidi, J. Goings, B. Peng, A. Petrone, 
 T. Henderson, D. Ranasinghe, V. G. Zakrzewski, J. Gao, N. Rega, 
 G. Zheng, W. Liang, M. Hada, M. Ehara, K. Toyota, R. Fukuda, 
 J. Hasegawa, M. Ishida, T. Nakajima, Y. Honda, O. Kitao, H. Nakai, 
 T. Vreven, K. Throssell, J. A. Montgomery, Jr., J. E. Peralta, 
 F. Ogliaro, M. J. Bearpark, J. J. Heyd, E. N. Brothers, K. N. Kudin, 
 V. N. Staroverov, T. A. Keith, R. Kobayashi, J. Normand, 
 K. Raghavachari, A. P. Rendell, J. C. Burant, S. S. Iyengar, 
 J. Tomasi, M. Cossi, J. M. Millam, M. Klene, C. Adamo, R. Cammi, 
 J. W. Ochterski, R. L. Martin, K. Morokuma, O. Farkas, 
 J. B. Foresman, and D. J. Fox, Gaussian, Inc., Wallingford CT, 2019.
 
 ******************************************
 Gaussian 16:  EM64L-G16RevC.01  3-Jul-2019
                 5-Oct-2024 
 ******************************************
 %nprocshared=1
 Will use up to    1 processors via shared memory.
 %mem=2gb
 %chk=/gpfs/home/gdb20/code/input_macros/temp/oh_radical_m06-2x_6-31++Gdp/oh_radi
 cal_m06-2x_6-31++Gdp.chk
 ---------------------------
 #um062x/6-31g(d,p) OPT FREQ
 ---------------------------
 1/18=20,19=15,26=3,38=1/1,3;
 2/9=110,12=2,17=6,18=5,40=1/2;
 3/5=1,6=6,7=101,11=2,25=1,30=1,71=1,74=-55,116=2/1,2,3;
 4//1;
 5/5=2,38=5/2;
 6/7=2,8=2,9=2,10=2,28=1/1;
 7//1,2,3,16;
 1/18=20,19=15,26=3/3(2);
 2/9=110/2;
 99//99;
 2/9=110/2;
 3/5=1,6=6,7=101,11=2,25=1,30=1,71=1,74=-55,116=2/1,2,3;
 4/5=5,16=3,69=1/1;
 5/5=2,38=5/2;
 7//1,2,3,16;
 1/18=20,19=15,26=3/3(-5);
 2/9=110/2;
 6/7=2,8=2,9=2,10=2,19=2,28=1/1;
 99/9=1/99;
 ---------------------------
 created with so and so tool
 ---------------------------
 Symbolic Z-matrix:
 Charge =  0 Multiplicity = 2
 O                    -0.282     0.618     0. 
 H                    -1.129     0.606     0. 
 

 GradGradGradGradGradGradGradGradGradGradGradGradGradGradGradGradGradGrad
 Berny optimization.
 Initialization pass.
                           ----------------------------
                           !    Initial Parameters    !
                           ! (Angstroms and Degrees)  !
 --------------------------                            --------------------------
 ! Name  Definition              Value          Derivative Info.                !
 --------------------------------------------------------------------------------
 ! R1    R(1,2)                  0.8471         estimate D2E/DX2                !
 --------------------------------------------------------------------------------
 Trust Radius=3.00D-01 FncErr=1.00D-07 GrdErr=1.00D-06 EigMax=2.50D+02 EigMin=1.00D-04
 Number of steps in this run=     20 maximum allowed number of steps=    100.
 GradGradGradGradGradGradGradGradGradGradGradGradGradGradGradGradGradGrad

                          Input orientation:                          
 ---------------------------------------------------------------------
 Center     Atomic      Atomic             Coordinates (Angstroms)
 Number     Number       Type             X           Y           Z
 ---------------------------------------------------------------------
      1          8           0       -0.282000    0.618000    0.000000
      2          1           0       -1.129000    0.606000    0.000000
 ---------------------------------------------------------------------
 Stoichiometry    HO(2)
 Framework group  C*V[C*(HO)]
 Deg. of freedom     1
 Full point group                 C*V     NOp   4
 Largest Abelian subgroup         C2V     NOp   4
 Largest concise Abelian subgroup C1      NOp   1
                         Standard orientation:                         
 ---------------------------------------------------------------------
 Center     Atomic      Atomic             Coordinates (Angstroms)
 Number     Number       Type             X           Y           Z
 ---------------------------------------------------------------------
      1          8           0        0.000000    0.000000    0.094121
      2          1           0       -0.000000    0.000000   -0.752964
 ---------------------------------------------------------------------
 Rotational constants (GHZ):           0.0000000         742.8738155         742.8738155
 Standard basis: 6-31G(d,p) (6D, 7F)
 There are    11 symmetry adapted cartesian basis functions of A1  symmetry.
 There are     1 symmetry adapted cartesian basis functions of A2  symmetry.
 There are     4 symmetry adapted cartesian basis functions of B1  symmetry.
 There are     4 symmetry adapted cartesian basis functions of B2  symmetry.
 There are    11 symmetry adapted basis functions of A1  symmetry.
 There are     1 symmetry adapted basis functions of A2  symmetry.
 There are     4 symmetry adapted basis functions of B1  symmetry.
 There are     4 symmetry adapted basis functions of B2  symmetry.
    20 basis functions,    35 primitive gaussians,    20 cartesian basis functions
     5 alpha electrons        4 beta electrons
       nuclear repulsion energy         4.9976303195 Hartrees.
 NAtoms=    2 NActive=    2 NUniq=    2 SFac= 1.00D+00 NAtFMM=   60 NAOKFM=F Big=F
 Integral buffers will be    131072 words long.
 Raffenetti 2 integral format.
 Two-electron integral symmetry is turned on.
 One-electron integrals computed using PRISM.
 NBasis=    20 RedAO= T EigKep=  2.46D-02  NBF=    11     1     4     4
 NBsUse=    20 1.00D-06 EigRej= -1.00D+00 NBFU=    11     1     4     4
 ExpMin= 1.61D-01 ExpMax= 5.48D+03 ExpMxC= 8.25D+02 IAcc=3 IRadAn=         5 AccDes= 0.00D+00
 Harris functional with IExCor= 1009 and IRadAn=       5 diagonalized for initial guess.
 HarFok:  IExCor= 1009 AccDes= 0.00D+00 IRadAn=         5 IDoV= 1 UseB2=F ITyADJ=14
 ICtDFT=  3500011 ScaDFX=  1.000000  1.000000  1.000000  1.000000
 FoFCou: FMM=F IPFlag=           0 FMFlag=      100000 FMFlg1=           0
         NFxFlg=           0 DoJE=T BraDBF=F KetDBF=T FulRan=T
         wScrn=  0.000000 ICntrl=       500 IOpCl=  0 I1Cent=   200000004 NGrid=           0
         NMat0=    1 NMatS0=      1 NMatT0=    0 NMatD0=    1 NMtDS0=    0 NMtDT0=    0
 Petite list used in FoFCou.
 Initial guess orbital symmetries:
 Alpha Orbitals:
       Occupied  (SG) (SG) (SG) (PI) (PI)
       Virtual   (SG) (SG) (PI) (PI) (SG) (SG) (PI) (PI) (DLTA)
                 (DLTA) (SG) (PI) (PI) (SG) (SG)
 Beta  Orbitals:
       Occupied  (SG) (SG) (SG) (PI)
       Virtual   (PI) (SG) (SG) (PI) (PI) (SG) (SG) (PI) (PI) (DLTA)
                 (DLTA) (SG) (PI) (PI) (SG) (SG)
 Initial guess <Sx>= 0.0000 <Sy>= 0.0000 <Sz>= 0.5000 <S**2>= 0.7500 S= 0.5000
 Keep R1 and R2 ints in memory in symmetry-blocked form, NReq=887456.
 Requested convergence on RMS density matrix=1.00D-08 within 128 cycles.
 Requested convergence on MAX density matrix=1.00D-06.
 Requested convergence on             energy=1.00D-06.
 No special actions if energy rises.
 Integral accuracy reduced to 1.0D-05 until final iterations.
 Initial convergence to 1.0D-05 achieved.  Increase integral accuracy.
 SCF Done:  E(UM062X) =  -75.6730447303     A.U. after   12 cycles
            NFock= 12  Conv=0.66D-08     -V/T= 2.0030
 <Sx>= 0.0000 <Sy>= 0.0000 <Sz>= 0.5000 <S**2>= 0.7517 S= 0.5008
 <L.S>= 0.000000000000E+00
 Annihilation of the first spin contaminant:
 S**2 before annihilation     0.7517,   after     0.7500

 **********************************************************************

            Population analysis using the SCF Density.

 **********************************************************************

 Orbital symmetries:
 Alpha Orbitals:
       Occupied  (SG) (SG) (SG) (PI) (PI)
       Virtual   (SG) (SG) (PI) (PI) (SG) (SG) (PI) (PI) (DLTA)
                 (DLTA) (SG) (PI) (PI) (SG) (SG)
 Beta  Orbitals:
       Occupied  (SG) (SG) (SG) (?A)
       Virtual   (?A) (SG) (SG) (?A) (SG) (?A) (SG) (PI) (PI) (DLTA)
                 (DLTA) (SG) (PI) (PI) (SG) (SG)
 Unable to determine electronic state:  an orbital has unidentified symmetry.
 Alpha  occ. eigenvalues --  -19.68809  -1.17017  -0.56993  -0.49042  -0.42558
 Alpha virt. eigenvalues --    0.15713   0.87857   0.89899   0.94534   0.94907
 Alpha virt. eigenvalues --    1.15004   1.60130   1.63216   1.81303   1.81439
 Alpha virt. eigenvalues --    2.59277   2.78763   2.80962   3.44690   3.76913
  Beta  occ. eigenvalues --  -19.67196  -1.09234  -0.53568  -0.39106
  Beta virt. eigenvalues --   -0.07689   0.15934   0.88665   0.95772   0.96013
  Beta virt. eigenvalues --    0.97470   1.16004   1.64764   1.64773   1.86337
  Beta virt. eigenvalues --    1.88171   2.61390   2.80342   2.81261   3.48993
  Beta virt. eigenvalues --    3.77667
          Condensed to atoms (all electrons):
               1          2
     1  O    8.033013   0.292062
     2  H    0.292062   0.382862
          Atomic-Atomic Spin Densities.
               1          2
     1  O    1.020549   0.001913
     2  H    0.001913  -0.024375
 Mulliken charges and spin densities:
               1          2
     1  O   -0.325076   1.022462
     2  H    0.325076  -0.022462
 Sum of Mulliken charges =  -0.00000   1.00000
 Mulliken charges and spin densities with hydrogens summed into heavy atoms:
               1          2
     1  O   -0.000000   1.000000
 Electronic spatial extent (au):  <R**2>=             14.2263
 Charge=             -0.0000 electrons
 Dipole moment (field-independent basis, Debye):
    X=             -0.0000    Y=              0.0000    Z=             -1.7193  Tot=              1.7193
 Quadrupole moment (field-independent basis, Debye-Ang):
   XX=             -5.1531   YY=             -6.2803   ZZ=             -4.6378
   XY=              0.0000   XZ=              0.0000   YZ=             -0.0000
 Traceless Quadrupole moment (field-independent basis, Debye-Ang):
   XX=              0.2040   YY=             -0.9232   ZZ=              0.7192
   XY=              0.0000   XZ=              0.0000   YZ=             -0.0000
 Octapole moment (field-independent basis, Debye-Ang**2):
  XXX=             -0.0000  YYY=              0.0000  ZZZ=             -1.6720  XYY=             -0.0000
  XXY=              0.0000  XXZ=             -0.2578  XZZ=             -0.0000  YZZ=              0.0000
  YYZ=             -0.3385  XYZ=              0.0000
 Hexadecapole moment (field-independent basis, Debye-Ang**3):
 XXXX=             -3.1927 YYYY=             -4.4370 ZZZZ=             -4.5511 XXXY=              0.0000
 XXXZ=             -0.0000 YYYX=              0.0000 YYYZ=              0.0000 ZZZX=             -0.0000
 ZZZY=              0.0000 XXYY=             -1.2716 XXZZ=             -1.4251 YYZZ=             -1.6434
 XXYZ=              0.0000 YYXZ=             -0.0000 ZZXY=              0.0000
 N-N= 4.997630319477D+00 E-N=-1.892036491069D+02  KE= 7.544522841065D+01
 Symmetry A1   KE= 6.821915073938D+01
 Symmetry A2   KE= 6.726735115739D-35
 Symmetry B1   KE= 2.483207474478D+00
 Symmetry B2   KE= 4.742870196788D+00
 Symmetry A1   SP= 3.232223516614D-15
 Symmetry A2   SP= 5.006948153229D-36
 Symmetry B1   SP= 1.000000000000D+00
 Symmetry B2   SP= 8.836247705757D-16
                          Isotropic Fermi Contact Couplings
        Atom                 a.u.       MegaHertz       Gauss      10(-4) cm-1
     1  O(17)              0.12863     -77.97279     -27.82263     -26.00892
     2  H(1)              -0.01398     -62.48594     -22.29654     -20.84306
 --------------------------------------------------------
       Center         ----  Spin Dipole Couplings  ----
                      3XX-RR        3YY-RR        3ZZ-RR
 --------------------------------------------------------
     1   Atom        3.507119     -1.748403     -1.758716
     2   Atom       -0.026757     -0.183163      0.209920
 --------------------------------------------------------
                        XY            XZ            YZ
 --------------------------------------------------------
     1   Atom       -0.000000      0.000000     -0.000000
     2   Atom        0.000000     -0.000000     -0.000000
 --------------------------------------------------------


 ---------------------------------------------------------------------------------
              Anisotropic Spin Dipole Couplings in Principal Axis System
 ---------------------------------------------------------------------------------

       Atom             a.u.   MegaHertz   Gauss  10(-4) cm-1        Axes

              Baa    -1.7587   127.259    45.409    42.449  0.0000  0.0000  1.0000
     1 O(17)  Bbb    -1.7484   126.513    45.143    42.200  0.0000  1.0000  0.0000
              Bcc     3.5071  -253.773   -90.552   -84.649  1.0000  0.0000  0.0000
 
              Baa    -0.1832   -97.727   -34.871   -32.598  0.0000  1.0000 -0.0000
     2 H(1)   Bbb    -0.0268   -14.276    -5.094    -4.762  1.0000 -0.0000 -0.0000
              Bcc     0.2099   112.003    39.966    37.360  0.0000  0.0000  1.0000
 

 ---------------------------------------------------------------------------------

 Calling FoFJK, ICntrl=      2127 FMM=F ISym2X=1 I1Cent= 0 IOpClX= 1 NMat=1 NMatS=1 NMatT=0.
 ***** Axes restored to original set *****
 -------------------------------------------------------------------
 Center     Atomic                   Forces (Hartrees/Bohr)
 Number     Number              X              Y              Z
 -------------------------------------------------------------------
      1        8           0.197603715    0.002799580   -0.000000000
      2        1          -0.197603715   -0.002799580    0.000000000
 -------------------------------------------------------------------
 Cartesian Forces:  Max     0.197603715 RMS     0.114098007

 GradGradGradGradGradGradGradGradGradGradGradGradGradGradGradGradGradGrad
 Berny optimization.
 FormGI is forming the generalized inverse of G from B-inverse, IUseBI=4.
 Internal  Forces:  Max     0.197623546 RMS     0.197623546
 Search for a local minimum.
 Step number   1 out of a maximum of   20
 All quantities printed in internal units (Hartrees-Bohrs-Radians)
 Mixed Optimization -- RFO/linear search
 Second derivative matrix not updated -- first step.
 The second derivative matrix:
                          R1
           R1           0.89046
 ITU=  0
     Eigenvalues ---    0.89046
 RFO step:  Lambda=-4.18889716D-02 EMin= 8.90458240D-01
 Linear search not attempted -- first point.
 Iteration  1 RMS(Cart)=  0.14142136 RMS(Int)=  0.01196347
 Iteration  2 RMS(Cart)=  0.00845945 RMS(Int)=  0.00000000
 Iteration  3 RMS(Cart)=  0.00000000 RMS(Int)=  0.00000000
 ClnCor:  largest displacement from symmetrization is 4.19D-20 for atom     2.
 Variable       Old X    -DE/DX   Delta X   Delta X   Delta X     New X
                                 (Linear)    (Quad)   (Total)
    R1        1.60076   0.19762   0.00000   0.21196   0.21196   1.81272
         Item               Value     Threshold  Converged?
 Maximum Force            0.197624     0.000450     NO 
 RMS     Force            0.197624     0.000300     NO 
 Maximum Displacement     0.105971     0.001800     NO 
 RMS     Displacement     0.149881     0.001200     NO 
 Predicted change in Energy=-2.188549D-02
 GradGradGradGradGradGradGradGradGradGradGradGradGradGradGradGradGradGrad

                          Input orientation:                          
 ---------------------------------------------------------------------
 Center     Atomic      Atomic             Coordinates (Angstroms)
 Number     Number       Type             X           Y           Z
 ---------------------------------------------------------------------
      1          8           0       -0.225923    0.618794   -0.000000
      2          1           0       -1.185077    0.605206    0.000000
 ---------------------------------------------------------------------
 Stoichiometry    HO(2)
 Framework group  C*V[C*(HO)]
 Deg. of freedom     1
 Full point group                 C*V     NOp   4
 Largest Abelian subgroup         C2V     NOp   4
 Largest concise Abelian subgroup C1      NOp   1
                         Standard orientation:                         
 ---------------------------------------------------------------------
 Center     Atomic      Atomic             Coordinates (Angstroms)
 Number     Number       Type             X           Y           Z
 ---------------------------------------------------------------------
      1          8           0        0.000000   -0.000000    0.106583
      2          1           0       -0.000000    0.000000   -0.852668
 ---------------------------------------------------------------------
 Rotational constants (GHZ):           0.0000000         579.3010284         579.3010284
 Standard basis: 6-31G(d,p) (6D, 7F)
 There are    11 symmetry adapted cartesian basis functions of A1  symmetry.
 There are     1 symmetry adapted cartesian basis functions of A2  symmetry.
 There are     4 symmetry adapted cartesian basis functions of B1  symmetry.
 There are     4 symmetry adapted cartesian basis functions of B2  symmetry.
 There are    11 symmetry adapted basis functions of A1  symmetry.
 There are     1 symmetry adapted basis functions of A2  symmetry.
 There are     4 symmetry adapted basis functions of B1  symmetry.
 There are     4 symmetry adapted basis functions of B2  symmetry.
    20 basis functions,    35 primitive gaussians,    20 cartesian basis functions
     5 alpha electrons        4 beta electrons
       nuclear repulsion energy         4.4132522576 Hartrees.
 NAtoms=    2 NActive=    2 NUniq=    2 SFac= 1.00D+00 NAtFMM=   60 NAOKFM=F Big=F
 Integral buffers will be    131072 words long.
 Raffenetti 2 integral format.
 Two-electron integral symmetry is turned on.
 One-electron integrals computed using PRISM.
 NBasis=    20 RedAO= T EigKep=  2.98D-02  NBF=    11     1     4     4
 NBsUse=    20 1.00D-06 EigRej= -1.00D+00 NBFU=    11     1     4     4
 Initial guess from the checkpoint file:  "/gpfs/home/gdb20/code/input_macros/temp/oh_radical_m06-2x_6-31++Gdp/oh_radical_m06-2x_6-31++Gdp.chk"
 B after Tr=     0.000000   -0.000000   -0.000000
         Rot=    1.000000    0.000000   -0.000000    0.000000 Ang=   0.00 deg.
 Initial guess orbital symmetries:
 Alpha Orbitals:
       Occupied  (SG) (SG) (SG) (PI) (PI)
       Virtual   (SG) (SG) (PI) (PI) (SG) (SG) (PI) (PI) (DLTA)
                 (DLTA) (SG) (PI) (PI) (SG) (SG)
 Beta  Orbitals:
       Occupied  (SG) (SG) (SG) (?A)
       Virtual   (?A) (SG) (SG) (?A) (SG) (?A) (SG) (PI) (PI) (DLTA)
                 (DLTA) (SG) (PI) (PI) (SG) (SG)
 Initial guess <Sx>= 0.0000 <Sy>= 0.0000 <Sz>= 0.5000 <S**2>= 0.7518 S= 0.5009
 ExpMin= 1.61D-01 ExpMax= 5.48D+03 ExpMxC= 8.25D+02 IAcc=3 IRadAn=         5 AccDes= 0.00D+00
 Harris functional with IExCor= 1009 and IRadAn=       5 diagonalized for initial guess.
 HarFok:  IExCor= 1009 AccDes= 0.00D+00 IRadAn=         5 IDoV= 1 UseB2=F ITyADJ=14
 ICtDFT=  3500011 ScaDFX=  1.000000  1.000000  1.000000  1.000000
 FoFCou: FMM=F IPFlag=           0 FMFlag=      100000 FMFlg1=           0
         NFxFlg=           0 DoJE=T BraDBF=F KetDBF=T FulRan=T
         wScrn=  0.000000 ICntrl=       500 IOpCl=  0 I1Cent=   200000004 NGrid=           0
         NMat0=    1 NMatS0=      1 NMatT0=    0 NMatD0=    1 NMtDS0=    0 NMtDT0=    0
 Petite list used in FoFCou.
 Keep R1 and R2 ints in memory in symmetry-blocked form, NReq=887456.
 Requested convergence on RMS density matrix=1.00D-08 within 128 cycles.
 Requested convergence on MAX density matrix=1.00D-06.
 Requested convergence on             energy=1.00D-06.
 No special actions if energy rises.
 Integral accuracy reduced to 1.0D-05 until final iterations.
 Initial convergence to 1.0D-05 achieved.  Increase integral accuracy.
 SCF Done:  E(UM062X) =  -75.6933820948     A.U. after   14 cycles
            NFock= 14  Conv=0.17D-08     -V/T= 2.0067
 <Sx>= 0.0000 <Sy>= 0.0000 <Sz>= 0.5000 <S**2>= 0.7520 S= 0.5010
 <L.S>= 0.000000000000E+00
 Annihilation of the first spin contaminant:
 S**2 before annihilation     0.7520,   after     0.7500
 Calling FoFJK, ICntrl=      2127 FMM=F ISym2X=1 I1Cent= 0 IOpClX= 1 NMat=1 NMatS=1 NMatT=0.
 ***** Axes restored to original set *****
 -------------------------------------------------------------------
 Center     Atomic                   Forces (Hartrees/Bohr)
 Number     Number              X              Y              Z
 -------------------------------------------------------------------
      1        8           0.016688388    0.000236435    0.000000000
      2        1          -0.016688388   -0.000236435   -0.000000000
 -------------------------------------------------------------------
 Cartesian Forces:  Max     0.016688388 RMS     0.009636012

 GradGradGradGradGradGradGradGradGradGradGradGradGradGradGradGradGradGrad
 Berny optimization.
 Using GEDIIS/GDIIS optimizer.
 Internal  Forces:  Max     0.016690062 RMS     0.016690062
 Search for a local minimum.
 Step number   2 out of a maximum of   20
 All quantities printed in internal units (Hartrees-Bohrs-Radians)
 Mixed Optimization -- RFO/linear search
 Update second derivatives using D2CorX and points    1    2
 DE= -2.03D-02 DEPred=-2.19D-02 R= 9.29D-01
 TightC=F SS=  1.41D+00  RLast= 2.12D-01 DXNew= 5.0454D-01 6.3589D-01
 Trust test= 9.29D-01 RLast= 2.12D-01 DXMaxT set to 5.05D-01
 The second derivative matrix:
                          R1
           R1           0.85361
 ITU=  1  0
 Use linear search instead of GDIIS.
     Eigenvalues ---    0.85361
 RFO step:  Lambda= 0.00000000D+00 EMin= 8.53606932D-01
 Quartic linear search produced a step of  0.15202.
 Iteration  1 RMS(Cart)=  0.02278530 RMS(Int)=  0.00000000
 Iteration  2 RMS(Cart)=  0.00000000 RMS(Int)=  0.00000000
 ClnCor:  largest displacement from symmetrization is 4.44D-16 for atom     2.
 Variable       Old X    -DE/DX   Delta X   Delta X   Delta X     New X
                                 (Linear)    (Quad)   (Total)
    R1        1.81272   0.01669   0.03222   0.00000   0.03222   1.84495
         Item               Value     Threshold  Converged?
 Maximum Force            0.016690     0.000450     NO 
 RMS     Force            0.016690     0.000300     NO 
 Maximum Displacement     0.016110     0.001800     NO 
 RMS     Displacement     0.022785     0.001200     NO 
 Predicted change in Energy=-9.464155D-05
 GradGradGradGradGradGradGradGradGradGradGradGradGradGradGradGradGradGrad

                          Input orientation:                          
 ---------------------------------------------------------------------
 Center     Atomic      Atomic             Coordinates (Angstroms)
 Number     Number       Type             X           Y           Z
 ---------------------------------------------------------------------
      1          8           0       -0.217397    0.618915   -0.000000
      2          1           0       -1.193603    0.605085    0.000000
 ---------------------------------------------------------------------
 Stoichiometry    HO(2)
 Framework group  C*V[C*(HO)]
 Deg. of freedom     1
 Full point group                 C*V     NOp   4
 Largest Abelian subgroup         C2V     NOp   4
 Largest concise Abelian subgroup C1      NOp   1
                         Standard orientation:                         
 ---------------------------------------------------------------------
 Center     Atomic      Atomic             Coordinates (Angstroms)
 Number     Number       Type             X           Y           Z
 ---------------------------------------------------------------------
      1          8           0        0.000000    0.000000    0.108478
      2          1           0       -0.000000    0.000000   -0.867825
 ---------------------------------------------------------------------
 Rotational constants (GHZ):           0.0000000         559.2419388         559.2419388
 Standard basis: 6-31G(d,p) (6D, 7F)
 There are    11 symmetry adapted cartesian basis functions of A1  symmetry.
 There are     1 symmetry adapted cartesian basis functions of A2  symmetry.
 There are     4 symmetry adapted cartesian basis functions of B1  symmetry.
 There are     4 symmetry adapted cartesian basis functions of B2  symmetry.
 There are    11 symmetry adapted basis functions of A1  symmetry.
 There are     1 symmetry adapted basis functions of A2  symmetry.
 There are     4 symmetry adapted basis functions of B1  symmetry.
 There are     4 symmetry adapted basis functions of B2  symmetry.
    20 basis functions,    35 primitive gaussians,    20 cartesian basis functions
     5 alpha electrons        4 beta electrons
       nuclear repulsion energy         4.3361716796 Hartrees.
 NAtoms=    2 NActive=    2 NUniq=    2 SFac= 1.00D+00 NAtFMM=   60 NAOKFM=F Big=F
 Integral buffers will be    131072 words long.
 Raffenetti 2 integral format.
 Two-electron integral symmetry is turned on.
 One-electron integrals computed using PRISM.
 NBasis=    20 RedAO= T EigKep=  3.05D-02  NBF=    11     1     4     4
 NBsUse=    20 1.00D-06 EigRej= -1.00D+00 NBFU=    11     1     4     4
 Initial guess from the checkpoint file:  "/gpfs/home/gdb20/code/input_macros/temp/oh_radical_m06-2x_6-31++Gdp/oh_radical_m06-2x_6-31++Gdp.chk"
 B after Tr=    -0.000000    0.000000    0.000000
         Rot=    1.000000    0.000000   -0.000000    0.000000 Ang=   0.00 deg.
 Initial guess orbital symmetries:
 Alpha Orbitals:
       Occupied  (SG) (SG) (SG) (PI) (PI)
       Virtual   (SG) (SG) (PI) (SG) (PI) (SG) (PI) (PI) (?A) (?A)
                 (?A) (PI) (PI) (SG) (SG)
 Beta  Orbitals:
       Occupied  (SG) (SG) (SG) (?A)
       Virtual   (?A) (SG) (SG) (SG) (?A) (?A) (SG) (PI) (PI) (DLTA)
                 (DLTA) (SG) (PI) (PI) (SG) (SG)
 Initial guess <Sx>= 0.0000 <Sy>= 0.0000 <Sz>= 0.5000 <S**2>= 0.7520 S= 0.5010
 Keep R1 and R2 ints in memory in symmetry-blocked form, NReq=887456.
 Requested convergence on RMS density matrix=1.00D-08 within 128 cycles.
 Requested convergence on MAX density matrix=1.00D-06.
 Requested convergence on             energy=1.00D-06.
 No special actions if energy rises.
 SCF Done:  E(UM062X) =  -75.6936335032     A.U. after    9 cycles
            NFock=  9  Conv=0.16D-08     -V/T= 2.0071
 <Sx>= 0.0000 <Sy>= 0.0000 <Sz>= 0.5000 <S**2>= 0.7521 S= 0.5010
 <L.S>= 0.000000000000E+00
 Annihilation of the first spin contaminant:
 S**2 before annihilation     0.7521,   after     0.7500
 Calling FoFJK, ICntrl=      2127 FMM=F ISym2X=1 I1Cent= 0 IOpClX= 1 NMat=1 NMatS=1 NMatT=0.
 ***** Axes restored to original set *****
 -------------------------------------------------------------------
 Center     Atomic                   Forces (Hartrees/Bohr)
 Number     Number              X              Y              Z
 -------------------------------------------------------------------
      1        8          -0.000745047   -0.000010556    0.000000000
      2        1           0.000745047    0.000010556   -0.000000000
 -------------------------------------------------------------------
 Cartesian Forces:  Max     0.000745047 RMS     0.000430196

 GradGradGradGradGradGradGradGradGradGradGradGradGradGradGradGradGradGrad
 Berny optimization.
 Using GEDIIS/GDIIS optimizer.
 Internal  Forces:  Max     0.000745121 RMS     0.000745121
 Search for a local minimum.
 Step number   3 out of a maximum of   20
 All quantities printed in internal units (Hartrees-Bohrs-Radians)
 Mixed Optimization -- En-DIIS/RFO-DIIS
 Update second derivatives using D2CorX and points    2    3
 DE= -2.51D-04 DEPred=-9.46D-05 R= 2.66D+00
 TightC=F SS=  1.41D+00  RLast= 3.22D-02 DXNew= 8.4853D-01 9.6670D-02
 Trust test= 2.66D+00 RLast= 3.22D-02 DXMaxT set to 5.05D-01
 The second derivative matrix:
                          R1
           R1           0.54107
 ITU=  1  1
 Use linear search instead of GDIIS.
     Eigenvalues ---    0.54107
 RFO step:  Lambda= 0.00000000D+00 EMin= 5.41074169D-01
 Quartic linear search produced a step of -0.04525.
 Iteration  1 RMS(Cart)=  0.00103097 RMS(Int)=  0.00000000
 Iteration  2 RMS(Cart)=  0.00000000 RMS(Int)=  0.00000000
 ClnCor:  largest displacement from symmetrization is 4.44D-16 for atom     2.
 Variable       Old X    -DE/DX   Delta X   Delta X   Delta X     New X
                                 (Linear)    (Quad)   (Total)
    R1        1.84495  -0.00075  -0.00146   0.00000  -0.00146   1.84349
         Item               Value     Threshold  Converged?
 Maximum Force            0.000745     0.000450     NO 
 RMS     Force            0.000745     0.000300     NO 
 Maximum Displacement     0.000729     0.001800     YES
 RMS     Displacement     0.001031     0.001200     YES
 Predicted change in Energy=-5.112884D-07
 GradGradGradGradGradGradGradGradGradGradGradGradGradGradGradGradGradGrad

                          Input orientation:                          
 ---------------------------------------------------------------------
 Center     Atomic      Atomic             Coordinates (Angstroms)
 Number     Number       Type             X           Y           Z
 ---------------------------------------------------------------------
      1          8           0       -0.217783    0.618910   -0.000000
      2          1           0       -1.193217    0.605090    0.000000
 ---------------------------------------------------------------------
 Stoichiometry    HO(2)
 Framework group  C*V[C*(HO)]
 Deg. of freedom     1
 Full point group                 C*V     NOp   4
 Largest Abelian subgroup         C2V     NOp   4
 Largest concise Abelian subgroup C1      NOp   1
                         Standard orientation:                         
 ---------------------------------------------------------------------
 Center     Atomic      Atomic             Coordinates (Angstroms)
 Number     Number       Type             X           Y           Z
 ---------------------------------------------------------------------
      1          8           0        0.000000    0.000000    0.108392
      2          1           0       -0.000000    0.000000   -0.867139
 ---------------------------------------------------------------------
 Rotational constants (GHZ):           0.0000000         560.1268992         560.1268992
 Standard basis: 6-31G(d,p) (6D, 7F)
 There are    11 symmetry adapted cartesian basis functions of A1  symmetry.
 There are     1 symmetry adapted cartesian basis functions of A2  symmetry.
 There are     4 symmetry adapted cartesian basis functions of B1  symmetry.
 There are     4 symmetry adapted cartesian basis functions of B2  symmetry.
 There are    11 symmetry adapted basis functions of A1  symmetry.
 There are     1 symmetry adapted basis functions of A2  symmetry.
 There are     4 symmetry adapted basis functions of B1  symmetry.
 There are     4 symmetry adapted basis functions of B2  symmetry.
    20 basis functions,    35 primitive gaussians,    20 cartesian basis functions
     5 alpha electrons        4 beta electrons
       nuclear repulsion energy         4.3396011643 Hartrees.
 NAtoms=    2 NActive=    2 NUniq=    2 SFac= 1.00D+00 NAtFMM=   60 NAOKFM=F Big=F
 Integral buffers will be    131072 words long.
 Raffenetti 2 integral format.
 Two-electron integral symmetry is turned on.
 One-electron integrals computed using PRISM.
 NBasis=    20 RedAO= T EigKep=  3.05D-02  NBF=    11     1     4     4
 NBsUse=    20 1.00D-06 EigRej= -1.00D+00 NBFU=    11     1     4     4
 Initial guess from the checkpoint file:  "/gpfs/home/gdb20/code/input_macros/temp/oh_radical_m06-2x_6-31++Gdp/oh_radical_m06-2x_6-31++Gdp.chk"
 B after Tr=    -0.000000    0.000000    0.000000
         Rot=    1.000000    0.000000    0.000000    0.000000 Ang=   0.00 deg.
 Initial guess orbital symmetries:
 Alpha Orbitals:
       Occupied  (SG) (SG) (SG) (PI) (PI)
       Virtual   (SG) (SG) (PI) (SG) (PI) (SG) (PI) (PI) (?A) (?A)
                 (?A) (PI) (PI) (SG) (SG)
 Beta  Orbitals:
       Occupied  (SG) (SG) (SG) (?A)
       Virtual   (?A) (SG) (SG) (SG) (?A) (?A) (SG) (PI) (PI) (DLTA)
                 (DLTA) (SG) (PI) (PI) (SG) (SG)
 Initial guess <Sx>= 0.0000 <Sy>= 0.0000 <Sz>= 0.5000 <S**2>= 0.7521 S= 0.5010
 Keep R1 and R2 ints in memory in symmetry-blocked form, NReq=887456.
 Requested convergence on RMS density matrix=1.00D-08 within 128 cycles.
 Requested convergence on MAX density matrix=1.00D-06.
 Requested convergence on             energy=1.00D-06.
 No special actions if energy rises.
 SCF Done:  E(UM062X) =  -75.6936340469     A.U. after    7 cycles
            NFock=  7  Conv=0.90D-08     -V/T= 2.0071
 <Sx>= 0.0000 <Sy>= 0.0000 <Sz>= 0.5000 <S**2>= 0.7521 S= 0.5010
 <L.S>= 0.000000000000E+00
 Annihilation of the first spin contaminant:
 S**2 before annihilation     0.7521,   after     0.7500
 Calling FoFJK, ICntrl=      2127 FMM=F ISym2X=1 I1Cent= 0 IOpClX= 1 NMat=1 NMatS=1 NMatT=0.
 ***** Axes restored to original set *****
 -------------------------------------------------------------------
 Center     Atomic                   Forces (Hartrees/Bohr)
 Number     Number              X              Y              Z
 -------------------------------------------------------------------
      1        8           0.000000009    0.000000000    0.000000000
      2        1          -0.000000009   -0.000000000   -0.000000000
 -------------------------------------------------------------------
 Cartesian Forces:  Max     0.000000009 RMS     0.000000005

 GradGradGradGradGradGradGradGradGradGradGradGradGradGradGradGradGradGrad
 Berny optimization.
 Using GEDIIS/GDIIS optimizer.
 Internal  Forces:  Max     0.000000009 RMS     0.000000009
 Search for a local minimum.
 Step number   4 out of a maximum of   20
 All quantities printed in internal units (Hartrees-Bohrs-Radians)
 Mixed Optimization -- En-DIIS/RFO-DIIS
 Swapping is turned off.
 Update second derivatives using D2CorX and points    3    4
 DE= -5.44D-07 DEPred=-5.11D-07 R= 1.06D+00
 Trust test= 1.06D+00 RLast= 1.46D-03 DXMaxT set to 5.05D-01
 The second derivative matrix:
                          R1
           R1           0.51106
 ITU=  0  1
     Eigenvalues ---    0.51106
 En-DIIS/RFO-DIIS/Sim-DIIS IScMMF=       -3 using points:     4    3
 RFO step:  Lambda=-1.66533454D-16.
 DidBck=F Rises=F RFO-DIIS coefs:    0.99999    0.00001
 Iteration  1 RMS(Cart)=  0.00000001 RMS(Int)=  0.00000000
 ClnCor:  largest displacement from symmetrization is 1.97D-20 for atom     2.
 Variable       Old X    -DE/DX   Delta X   Delta X   Delta X     New X
                                 (Linear)    (Quad)   (Total)
    R1        1.84349   0.00000   0.00000  -0.00000   0.00000   1.84349
         Item               Value     Threshold  Converged?
 Maximum Force            0.000000     0.000450     YES
 RMS     Force            0.000000     0.000300     YES
 Maximum Displacement     0.000000     0.001800     YES
 RMS     Displacement     0.000000     0.001200     YES
 Predicted change in Energy=-8.546767D-17
 Optimization completed.
    -- Stationary point found.
                           ----------------------------
                           !   Optimized Parameters   !
                           ! (Angstroms and Degrees)  !
 --------------------------                            --------------------------
 ! Name  Definition              Value          Derivative Info.                !
 --------------------------------------------------------------------------------
 ! R1    R(1,2)                  0.9755         -DE/DX =    0.0                 !
 --------------------------------------------------------------------------------
 GradGradGradGradGradGradGradGradGradGradGradGradGradGradGradGradGradGrad

                          Input orientation:                          
 ---------------------------------------------------------------------
 Center     Atomic      Atomic             Coordinates (Angstroms)
 Number     Number       Type             X           Y           Z
 ---------------------------------------------------------------------
      1          8           0       -0.217783    0.618910   -0.000000
      2          1           0       -1.193217    0.605090    0.000000
 ---------------------------------------------------------------------
 Stoichiometry    HO(2)
 Framework group  C*V[C*(HO)]
 Deg. of freedom     1
 Full point group                 C*V     NOp   4
 Largest Abelian subgroup         C2V     NOp   4
 Largest concise Abelian subgroup C1      NOp   1
                         Standard orientation:                         
 ---------------------------------------------------------------------
 Center     Atomic      Atomic             Coordinates (Angstroms)
 Number     Number       Type             X           Y           Z
 ---------------------------------------------------------------------
      1          8           0        0.000000    0.000000    0.108392
      2          1           0       -0.000000   -0.000000   -0.867139
 ---------------------------------------------------------------------
 Rotational constants (GHZ):           0.0000000         560.1268992         560.1268992

 **********************************************************************

            Population analysis using the SCF Density.

 **********************************************************************

 Orbital symmetries:
 Alpha Orbitals:
       Occupied  (SG) (SG) (SG) (PI) (PI)
       Virtual   (SG) (SG) (PI) (SG) (PI) (SG) (PI) (PI) (?A) (?A)
                 (?A) (PI) (PI) (SG) (SG)
 Beta  Orbitals:
       Occupied  (SG) (SG) (SG) (?A)
       Virtual   (?A) (SG) (SG) (SG) (?A) (?A) (SG) (PI) (PI) (DLTA)
                 (DLTA) (SG) (PI) (PI) (SG) (SG)
 Unable to determine electronic state:  an orbital has unidentified symmetry.
 Alpha  occ. eigenvalues --  -19.69818  -1.12705  -0.54635  -0.48417  -0.41917
 Alpha virt. eigenvalues --    0.12602   0.80924   0.89991   0.90839   0.94695
 Alpha virt. eigenvalues --    1.12693   1.58023   1.60818   1.81905   1.82065
 Alpha virt. eigenvalues --    2.36918   2.62931   2.65017   3.33797   3.50552
  Beta  occ. eigenvalues --  -19.68190  -1.04539  -0.51465  -0.38408
  Beta virt. eigenvalues --   -0.07072   0.13496   0.81994   0.91440   0.95971
  Beta virt. eigenvalues --    0.97969   1.13822   1.62177   1.62248   1.86911
  Beta virt. eigenvalues --    1.88771   2.39212   2.64553   2.65438   3.36031
  Beta virt. eigenvalues --    3.52862
          Condensed to atoms (all electrons):
               1          2
     1  O    8.092228   0.250890
     2  H    0.250890   0.405992
          Atomic-Atomic Spin Densities.
               1          2
     1  O    1.028874   0.001320
     2  H    0.001320  -0.031514
 Mulliken charges and spin densities:
               1          2
     1  O   -0.343118   1.030194
     2  H    0.343118  -0.030194
 Sum of Mulliken charges =  -0.00000   1.00000
 Mulliken charges and spin densities with hydrogens summed into heavy atoms:
               1          2
     1  O   -0.000000   1.000000
 Electronic spatial extent (au):  <R**2>=             15.0302
 Charge=             -0.0000 electrons
 Dipole moment (field-independent basis, Debye):
    X=             -0.0000    Y=              0.0000    Z=             -1.7902  Tot=              1.7902
 Quadrupole moment (field-independent basis, Debye-Ang):
   XX=             -5.2878   YY=             -6.4188   ZZ=             -4.4464
   XY=              0.0000   XZ=             -0.0000   YZ=              0.0000
 Traceless Quadrupole moment (field-independent basis, Debye-Ang):
   XX=              0.0966   YY=             -1.0345   ZZ=              0.9379
   XY=              0.0000   XZ=             -0.0000   YZ=              0.0000
 Octapole moment (field-independent basis, Debye-Ang**2):
  XXX=             -0.0000  YYY=              0.0000  ZZZ=             -1.9205  XYY=             -0.0000
  XXY=              0.0000  XXZ=             -0.1721  XZZ=              0.0000  YZZ=             -0.0000
  YYZ=             -0.2721  XYZ=              0.0000
 Hexadecapole moment (field-independent basis, Debye-Ang**3):
 XXXX=             -3.3453 YYYY=             -4.5981 ZZZZ=             -5.0117 XXXY=              0.0000
 XXXZ=             -0.0000 YYYX=              0.0000 YYYZ=              0.0000 ZZZX=             -0.0000
 ZZZY=              0.0000 XXYY=             -1.3239 XXZZ=             -1.6256 YYZZ=             -1.8482
 XXYZ=              0.0000 YYXZ=             -0.0000 ZZXY=              0.0000
 N-N= 4.339601164304D+00 E-N=-1.878022427552D+02  KE= 7.515946194331D+01
 Symmetry A1   KE= 6.792785853048D+01
 Symmetry A2   KE= 3.927844335703D-35
 Symmetry B1   KE= 2.485906216656D+00
 Symmetry B2   KE= 4.745697196176D+00
 Symmetry A1   SP= 2.257092082680D-15
 Symmetry A2   SP= 4.550604731537D-36
 Symmetry B1   SP= 1.000000000000D+00
 Symmetry B2   SP= 1.358071641255D-15
                          Isotropic Fermi Contact Couplings
        Atom                 a.u.       MegaHertz       Gauss      10(-4) cm-1
     1  O(17)              0.12406     -75.20289     -26.83426     -25.08499
     2  H(1)              -0.01512     -67.60633     -24.12362     -22.55104
 --------------------------------------------------------
       Center         ----  Spin Dipole Couplings  ----
                      3XX-RR        3YY-RR        3ZZ-RR
 --------------------------------------------------------
     1   Atom        3.499598     -1.767286     -1.732312
     2   Atom       -0.039821     -0.133323      0.173144
 --------------------------------------------------------
                        XY            XZ            YZ
 --------------------------------------------------------
     1   Atom       -0.000000      0.000000     -0.000000
     2   Atom        0.000000      0.000000     -0.000000
 --------------------------------------------------------


 ---------------------------------------------------------------------------------
              Anisotropic Spin Dipole Couplings in Principal Axis System
 ---------------------------------------------------------------------------------

       Atom             a.u.   MegaHertz   Gauss  10(-4) cm-1        Axes

              Baa    -1.7673   127.880    45.631    42.656  0.0000  1.0000  0.0000
     1 O(17)  Bbb    -1.7323   125.349    44.728    41.812  0.0000  0.0000  1.0000
              Bcc     3.4996  -253.228   -90.358   -84.468  1.0000  0.0000  0.0000
 
              Baa    -0.1333   -71.135   -25.383   -23.728 -0.0000  1.0000 -0.0000
     2 H(1)   Bbb    -0.0398   -21.247    -7.581    -7.087  1.0000  0.0000  0.0000
              Bcc     0.1731    92.381    32.964    30.815  0.0000  0.0000  1.0000
 

 ---------------------------------------------------------------------------------

 Unable to Open any file for archive entry.
 1\1\GINC-HPC-I30-13\FOpt\UM062X\6-31G(d,p)\H1O1(2)\GDB20\05-Oct-2024\0
 \\#um062x/6-31g(d,p) OPT FREQ\\created with so and so tool\\0,2\O,-0.2
 177831891,0.6189098013,0.\H,-1.1932168109,0.6050901987,0.\\Version=EM6
 4L-G16RevC.01\HF=-75.693634\S2=0.752077\S2-1=0.\S2A=0.750003\RMSD=8.97
 1e-09\RMSF=5.396e-09\Dipole=-0.7042317,-0.0099773,0.\Quadrupole=0.6970
 068,-0.7686285,0.0716217,0.0207688,-0.0001687,0.0119097\PG=C*V [C*(H1O
 1)]\\@
 The archive entry for this job was punched.


 FLOATING POINT NUMBERS ARE LIKE SANDPILES:
 EVERY TIME THAT YOU MOVE ONE, YOU LOSE A LITTLE SAND 
 AND YOU PICK UP A LITTLE DIRT.
 Job cpu time:       0 days  0 hours  0 minutes 15.9 seconds.
 Elapsed time:       0 days  0 hours  0 minutes 15.9 seconds.
 File lengths (MBytes):  RWF=    136 Int=      0 D2E=      0 Chk=     16 Scr=     16
 Normal termination of Gaussian 16 at Sat Oct  5 18:31:22 2024.
 Link1:  Proceeding to internal job step number  2.
 ----------------------------------------------------------------------
 #N Geom=AllCheck Guess=TCheck SCRF=Check GenChk UM062X/6-31G(d,p) Freq
 ----------------------------------------------------------------------
 1/10=4,29=7,30=1,38=1,40=1/1,3;
 2/12=2,40=1/2;
 3/5=1,6=6,7=101,11=2,14=-4,25=1,30=1,70=2,71=2,74=-55,116=2,140=1/1,2,3;
 4/5=101/1;
 5/5=2,38=6,98=1/2;
 8/6=4,10=90,11=11/1;
 11/6=1,8=1,9=11,15=111,16=1/1,2,10;
 10/6=1/2;
 6/7=2,8=2,9=2,10=2,28=1/1;
 7/8=1,10=1,25=1/1,2,3,16;
 1/10=4,30=1/3;
 99//99;
 Structure from the checkpoint file:  "/gpfs/home/gdb20/code/input_macros/temp/oh_radical_m06-2x_6-31++Gdp/oh_radical_m06-2x_6-31++Gdp.chk"
 ---------------------------
 created with so and so tool
 ---------------------------
 Charge =  0 Multiplicity = 2
 Redundant internal coordinates found in file.  (old form).
 O,0,-0.2177831891,0.6189098013,0.
 H,0,-1.1932168109,0.6050901987,0.
 Recover connectivity data from disk.

 GradGradGradGradGradGradGradGradGradGradGradGradGradGradGradGradGradGrad
 Berny optimization.
 Initialization pass.
                           ----------------------------
                           !    Initial Parameters    !
                           ! (Angstroms and Degrees)  !
 --------------------------                            --------------------------
 ! Name  Definition              Value          Derivative Info.                !
 --------------------------------------------------------------------------------
 ! R1    R(1,2)                  0.9755         calculate D2E/DX2 analytically  !
 --------------------------------------------------------------------------------
 Trust Radius=3.00D-01 FncErr=1.00D-07 GrdErr=1.00D-07 EigMax=2.50D+02 EigMin=1.00D-04
 Number of steps in this run=      2 maximum allowed number of steps=      2.
 GradGradGradGradGradGradGradGradGradGradGradGradGradGradGradGradGradGrad

                          Input orientation:                          
 ---------------------------------------------------------------------
 Center     Atomic      Atomic             Coordinates (Angstroms)
 Number     Number       Type             X           Y           Z
 ---------------------------------------------------------------------
      1          8           0       -0.217783    0.618910   -0.000000
      2          1           0       -1.193217    0.605090    0.000000
 ---------------------------------------------------------------------
 Stoichiometry    HO(2)
 Framework group  C*V[C*(HO)]
 Deg. of freedom     1
 Full point group                 C*V     NOp   4
 Largest Abelian subgroup         C2V     NOp   4
 Largest concise Abelian subgroup C1      NOp   1
                         Standard orientation:                         
 ---------------------------------------------------------------------
 Center     Atomic      Atomic             Coordinates (Angstroms)
 Number     Number       Type             X           Y           Z
 ---------------------------------------------------------------------
      1          8           0       -0.000000    0.000000    0.108392
      2          1           0        0.000000    0.000000   -0.867139
 ---------------------------------------------------------------------
 Rotational constants (GHZ):           0.0000000         560.1268992         560.1268992
 Standard basis: 6-31G(d,p) (6D, 7F)
 There are    11 symmetry adapted cartesian basis functions of A1  symmetry.
 There are     1 symmetry adapted cartesian basis functions of A2  symmetry.
 There are     4 symmetry adapted cartesian basis functions of B1  symmetry.
 There are     4 symmetry adapted cartesian basis functions of B2  symmetry.
 There are    11 symmetry adapted basis functions of A1  symmetry.
 There are     1 symmetry adapted basis functions of A2  symmetry.
 There are     4 symmetry adapted basis functions of B1  symmetry.
 There are     4 symmetry adapted basis functions of B2  symmetry.
    20 basis functions,    35 primitive gaussians,    20 cartesian basis functions
     5 alpha electrons        4 beta electrons
       nuclear repulsion energy         4.3396011643 Hartrees.
 NAtoms=    2 NActive=    2 NUniq=    2 SFac= 1.00D+00 NAtFMM=   60 NAOKFM=F Big=F
 Integral buffers will be    131072 words long.
 Raffenetti 2 integral format.
 Two-electron integral symmetry is turned on.
 One-electron integrals computed using PRISM.
 NBasis=    20 RedAO= T EigKep=  3.05D-02  NBF=    11     1     4     4
 NBsUse=    20 1.00D-06 EigRej= -1.00D+00 NBFU=    11     1     4     4
 Initial guess from the checkpoint file:  "/gpfs/home/gdb20/code/input_macros/temp/oh_radical_m06-2x_6-31++Gdp/oh_radical_m06-2x_6-31++Gdp.chk"
 B after Tr=     0.000000    0.000000    0.000000
         Rot=    1.000000    0.000000    0.000000   -0.000000 Ang=   0.00 deg.
 Initial guess orbital symmetries:
 Alpha Orbitals:
       Occupied  (SG) (SG) (SG) (PI) (PI)
       Virtual   (SG) (SG) (PI) (SG) (PI) (SG) (PI) (PI) (?A) (?A)
                 (?A) (PI) (PI) (SG) (SG)
 Beta  Orbitals:
       Occupied  (SG) (SG) (SG) (?A)
       Virtual   (?A) (SG) (SG) (SG) (?A) (?A) (SG) (PI) (PI) (DLTA)
                 (DLTA) (SG) (PI) (PI) (SG) (SG)
 Initial guess <Sx>= 0.0000 <Sy>= 0.0000 <Sz>= 0.5000 <S**2>= 0.7521 S= 0.5010
 Keep R1 and R2 ints in memory in symmetry-blocked form, NReq=887456.
 Requested convergence on RMS density matrix=1.00D-08 within 128 cycles.
 Requested convergence on MAX density matrix=1.00D-06.
 Requested convergence on             energy=1.00D-06.
 No special actions if energy rises.
 SCF Done:  E(UM062X) =  -75.6936340469     A.U. after    1 cycles
            NFock=  1  Conv=0.35D-09     -V/T= 2.0071
 <Sx>= 0.0000 <Sy>= 0.0000 <Sz>= 0.5000 <S**2>= 0.7521 S= 0.5010
 <L.S>= 0.000000000000E+00
 Annihilation of the first spin contaminant:
 S**2 before annihilation     0.7521,   after     0.7500
 DoSCS=F DFT=T ScalE2(SS,OS)=  1.000000  1.000000
 Range of M.O.s used for correlation:     1    20
 NBasis=    20 NAE=     5 NBE=     4 NFC=     0 NFV=     0
 NROrb=     20 NOA=     5 NOB=     4 NVA=    15 NVB=    16
 Symmetrizing basis deriv contribution to polar:
 IMax=3 JMax=2 DiffMx= 0.00D+00
 G2DrvN: will do     3 centers at a time, making    1 passes.
 Calling FoFCou, ICntrl=  3107 FMM=F I1Cent=   0 AccDes= 0.00D+00.
 End of G2Drv F.D. properties file   721 does not exist.
 End of G2Drv F.D. properties file   722 does not exist.
 End of G2Drv F.D. properties file   788 does not exist.
          IDoAtm=11
          Differentiating once with respect to electric field.
                with respect to dipole field.
          Differentiating once with respect to nuclear coordinates.
 Keep R1 and R2 ints in memory in symmetry-blocked form, NReq=886040.
          There are     9 degrees of freedom in the 1st order CPHF.  IDoFFX=6 NUNeed=     3.
      6 vectors produced by pass  0 Test12= 1.54D-15 1.11D-08 XBig12= 3.86D+00 1.31D+00.
 AX will form     6 AO Fock derivatives at one time.
      6 vectors produced by pass  1 Test12= 1.54D-15 1.11D-08 XBig12= 2.59D-01 2.09D-01.
      6 vectors produced by pass  2 Test12= 1.54D-15 1.11D-08 XBig12= 3.48D-03 2.37D-02.
      6 vectors produced by pass  3 Test12= 1.54D-15 1.11D-08 XBig12= 4.75D-05 3.42D-03.
      6 vectors produced by pass  4 Test12= 1.54D-15 1.11D-08 XBig12= 9.73D-07 3.33D-04.
      6 vectors produced by pass  5 Test12= 1.54D-15 1.11D-08 XBig12= 3.71D-09 2.23D-05.
      4 vectors produced by pass  6 Test12= 1.54D-15 1.11D-08 XBig12= 2.95D-11 2.04D-06.
      1 vectors produced by pass  7 Test12= 1.54D-15 1.11D-08 XBig12= 1.03D-13 1.20D-07.
 InvSVY:  IOpt=1 It=  1 EMax= 2.22D-16
 Solved reduced A of dimension    41 with     6 vectors.
 Isotropic polarizability for W=    0.000000        3.89 Bohr**3.
 End of Minotr F.D. properties file   721 does not exist.
 End of Minotr F.D. properties file   722 does not exist.
 End of Minotr F.D. properties file   788 does not exist.

 **********************************************************************

            Population analysis using the SCF Density.

 **********************************************************************

 Orbital symmetries:
 Alpha Orbitals:
       Occupied  (SG) (SG) (SG) (PI) (PI)
       Virtual   (SG) (SG) (PI) (SG) (PI) (SG) (PI) (PI) (?A) (?A)
                 (?A) (PI) (PI) (SG) (SG)
 Beta  Orbitals:
       Occupied  (SG) (SG) (SG) (?A)
       Virtual   (?A) (SG) (SG) (SG) (?A) (?A) (SG) (PI) (PI) (DLTA)
                 (DLTA) (SG) (PI) (PI) (SG) (SG)
 Unable to determine electronic state:  an orbital has unidentified symmetry.
 Alpha  occ. eigenvalues --  -19.69818  -1.12705  -0.54635  -0.48417  -0.41917
 Alpha virt. eigenvalues --    0.12602   0.80924   0.89991   0.90839   0.94695
 Alpha virt. eigenvalues --    1.12693   1.58023   1.60818   1.81905   1.82065
 Alpha virt. eigenvalues --    2.36918   2.62931   2.65017   3.33797   3.50552
  Beta  occ. eigenvalues --  -19.68190  -1.04539  -0.51465  -0.38408
  Beta virt. eigenvalues --   -0.07072   0.13496   0.81994   0.91440   0.95971
  Beta virt. eigenvalues --    0.97969   1.13822   1.62177   1.62248   1.86911
  Beta virt. eigenvalues --    1.88771   2.39212   2.64553   2.65438   3.36031
  Beta virt. eigenvalues --    3.52862
          Condensed to atoms (all electrons):
               1          2
     1  O    8.092228   0.250890
     2  H    0.250890   0.405992
          Atomic-Atomic Spin Densities.
               1          2
     1  O    1.028874   0.001320
     2  H    0.001320  -0.031514
 Mulliken charges and spin densities:
               1          2
     1  O   -0.343118   1.030194
     2  H    0.343118  -0.030194
 Sum of Mulliken charges =   0.00000   1.00000
 Mulliken charges and spin densities with hydrogens summed into heavy atoms:
               1          2
     1  O    0.000000   1.000000
 APT charges:
               1
     1  O   -0.286066
     2  H    0.286066
 Sum of APT charges =   0.00000
 APT charges with hydrogens summed into heavy atoms:
               1
     1  O    0.000000
 Electronic spatial extent (au):  <R**2>=             15.0302
 Charge=              0.0000 electrons
 Dipole moment (field-independent basis, Debye):
    X=             -0.0000    Y=              0.0000    Z=             -1.7902  Tot=              1.7902
 Quadrupole moment (field-independent basis, Debye-Ang):
   XX=             -5.2878   YY=             -6.4188   ZZ=             -4.4464
   XY=              0.0000   XZ=              0.0000   YZ=             -0.0000
 Traceless Quadrupole moment (field-independent basis, Debye-Ang):
   XX=              0.0966   YY=             -1.0345   ZZ=              0.9379
   XY=              0.0000   XZ=              0.0000   YZ=             -0.0000
 Octapole moment (field-independent basis, Debye-Ang**2):
  XXX=             -0.0000  YYY=              0.0000  ZZZ=             -1.9205  XYY=             -0.0000
  XXY=              0.0000  XXZ=             -0.1721  XZZ=             -0.0000  YZZ=              0.0000
  YYZ=             -0.2721  XYZ=              0.0000
 Hexadecapole moment (field-independent basis, Debye-Ang**3):
 XXXX=             -3.3453 YYYY=             -4.5981 ZZZZ=             -5.0117 XXXY=              0.0000
 XXXZ=             -0.0000 YYYX=              0.0000 YYYZ=              0.0000 ZZZX=              0.0000
 ZZZY=             -0.0000 XXYY=             -1.3239 XXZZ=             -1.6256 YYZZ=             -1.8482
 XXYZ=              0.0000 YYXZ=             -0.0000 ZZXY=              0.0000
 N-N= 4.339601164304D+00 E-N=-1.878022427367D+02  KE= 7.515946193222D+01
 Symmetry A1   KE= 6.792785851160D+01
 Symmetry A2   KE= 5.182440252345D-35
 Symmetry B1   KE= 2.485906225111D+00
 Symmetry B2   KE= 4.745697195519D+00
 Symmetry A1   SP=-9.794682426234D-16
 Symmetry A2   SP= 4.657120244332D-36
 Symmetry B1   SP= 1.000000000000D+00
 Symmetry B2   SP= 9.371301477878D-16
  Exact polarizability:       2.941      -0.000       2.550       0.000      -0.000       6.182
 Approx polarizability:       2.918      -0.000       2.460       0.000      -0.000       6.392
                          Isotropic Fermi Contact Couplings
        Atom                 a.u.       MegaHertz       Gauss      10(-4) cm-1
     1  O(17)              0.12406     -75.20289     -26.83426     -25.08499
     2  H(1)              -0.01512     -67.60631     -24.12361     -22.55104
 --------------------------------------------------------
       Center         ----  Spin Dipole Couplings  ----
                      3XX-RR        3YY-RR        3ZZ-RR
 --------------------------------------------------------
     1   Atom        3.499598     -1.767286     -1.732312
     2   Atom       -0.039821     -0.133323      0.173144
 --------------------------------------------------------
                        XY            XZ            YZ
 --------------------------------------------------------
     1   Atom       -0.000000     -0.000000     -0.000000
     2   Atom       -0.000000     -0.000000     -0.000000
 --------------------------------------------------------


 ---------------------------------------------------------------------------------
              Anisotropic Spin Dipole Couplings in Principal Axis System
 ---------------------------------------------------------------------------------

       Atom             a.u.   MegaHertz   Gauss  10(-4) cm-1        Axes

              Baa    -1.7673   127.880    45.631    42.656  0.0000  1.0000 -0.0000
     1 O(17)  Bbb    -1.7323   125.349    44.728    41.812  0.0000  0.0000  1.0000
              Bcc     3.4996  -253.228   -90.358   -84.468  1.0000 -0.0000 -0.0000
 
              Baa    -0.1333   -71.135   -25.383   -23.728  0.0000  1.0000 -0.0000
     2 H(1)   Bbb    -0.0398   -21.247    -7.581    -7.087  1.0000 -0.0000 -0.0000
              Bcc     0.1731    92.381    32.964    30.815  0.0000  0.0000  1.0000
 

 ---------------------------------------------------------------------------------

 Calling FoFJK, ICntrl=    100127 FMM=F ISym2X=1 I1Cent= 0 IOpClX= 1 NMat=1 NMatS=1 NMatT=0.
 Full mass-weighted force constant matrix:
 Low frequencies ---  -67.9705   -0.0019   -0.0009    0.0018  157.9672 3779.3008
 Diagonal vibrational polarizability:
        0.0000000       0.0000000       0.0164395
 Harmonic frequencies (cm**-1), IR intensities (KM/Mole), Raman scattering
 activities (A**4/AMU), depolarization ratios for plane and unpolarized
 incident light, reduced masses (AMU), force constants (mDyne/A),
 and normal coordinates:
                      1
                     SG
 Frequencies --   3779.3008
 Red. masses --      1.0671
 Frc consts  --      8.9800
 IR Inten    --      8.7252
  Atom  AN      X      Y      Z
     1   8    -0.00   0.00  -0.06
     2   1     0.00  -0.00   1.00

 -------------------
 - Thermochemistry -
 -------------------
 Temperature   298.150 Kelvin.  Pressure   1.00000 Atm.
 Atom     1 has atomic number  8 and mass  15.99491
 Atom     2 has atomic number  1 and mass   1.00783
 Molecular mass:    17.00274 amu.
 Principal axes and moments of inertia in atomic units:
                           1         2         3
     Eigenvalues --     0.00000   3.22202   3.22202
           X            0.00000  -0.01023   0.99995
           Y           -0.00000   0.99995   0.01023
           Z            1.00000   0.00000   0.00000
 This molecule is a prolate symmetric top.
 Rotational symmetry number  1.
 Rotational temperature (Kelvin)     26.88185
 Rotational constant (GHZ):         560.126899
 Zero-point vibrational energy      22605.2 (Joules/Mol)
                                    5.40278 (Kcal/Mol)
 Vibrational temperatures:   5437.57
          (Kelvin)
 
 Zero-point correction=                           0.008610 (Hartree/Particle)
 Thermal correction to Energy=                    0.010970
 Thermal correction to Enthalpy=                  0.011915
 Thermal correction to Gibbs Free Energy=        -0.008318
 Sum of electronic and zero-point Energies=            -75.685024
 Sum of electronic and thermal Energies=               -75.682664
 Sum of electronic and thermal Enthalpies=             -75.681720
 Sum of electronic and thermal Free Energies=          -75.701952
 
                     E (Thermal)             CV                S
                      KCal/Mol        Cal/Mol-Kelvin    Cal/Mol-Kelvin
 Total                    6.884              4.968             42.583
 Electronic               0.000              0.000              1.377
 Translational            0.889              2.981             34.437
 Rotational               0.592              1.987              6.769
 Vibrational              5.403              0.000              0.000
                       Q            Log10(Q)             Ln(Q)
 Total Bot       0.669840D+04          3.825971          8.809624
 Total V=0       0.611277D+08          7.786238         17.928475
 Vib (Bot)       0.109580D-03         -3.960267         -9.118851
 Vib (V=0)       0.100000D+01          0.000000          0.000000
 Electronic      0.200000D+01          0.301030          0.693147
 Translational   0.275570D+07          6.440232         14.829183
 Rotational      0.110911D+02          1.044976          2.406145
 ***** Axes restored to original set *****
 -------------------------------------------------------------------
 Center     Atomic                   Forces (Hartrees/Bohr)
 Number     Number              X              Y              Z
 -------------------------------------------------------------------
      1        8           0.000000008    0.000000000   -0.000000000
      2        1          -0.000000008   -0.000000000    0.000000000
 -------------------------------------------------------------------
 Cartesian Forces:  Max     0.000000008 RMS     0.000000005
 FormGI is forming the generalized inverse of G from B-inverse, IUseBI=4.

 GradGradGradGradGradGradGradGradGradGradGradGradGradGradGradGradGradGrad
 Berny optimization.
 Internal  Forces:  Max     0.000000008 RMS     0.000000008
 Search for a local minimum.
 Step number   1 out of a maximum of    2
 All quantities printed in internal units (Hartrees-Bohrs-Radians)
 Second derivative matrix not updated -- analytic derivatives used.
 The second derivative matrix:
                          R1
           R1           0.51246
 ITU=  0
     Eigenvalues ---    0.51246
 Angle between quadratic step and forces=  90.00 degrees.
 Linear search not attempted -- first point.
 Iteration  1 RMS(Cart)=  0.00000001 RMS(Int)=  0.00000000
 ClnCor:  largest displacement from symmetrization is 5.55D-17 for atom     1.
 Variable       Old X    -DE/DX   Delta X   Delta X   Delta X     New X
                                 (Linear)    (Quad)   (Total)
    R1        1.84349   0.00000   0.00000   0.00000   0.00000   1.84349
         Item               Value     Threshold  Converged?
 Maximum Force            0.000000     0.000450     YES
 RMS     Force            0.000000     0.000300     YES
 Maximum Displacement     0.000000     0.001800     YES
 RMS     Displacement     0.000000     0.001200     YES
 Predicted change in Energy=-6.092292D-17
 Optimization completed.
    -- Stationary point found.
                           ----------------------------
                           !   Optimized Parameters   !
                           ! (Angstroms and Degrees)  !
 --------------------------                            --------------------------
 ! Name  Definition              Value          Derivative Info.                !
 --------------------------------------------------------------------------------
 ! R1    R(1,2)                  0.9755         -DE/DX =    0.0                 !
 --------------------------------------------------------------------------------
 GradGradGradGradGradGradGradGradGradGradGradGradGradGradGradGradGradGrad


 ----------------------------------------------------------------------

 Electric dipole moment (input orientation):
 (Debye = 10**-18 statcoulomb cm , SI units = C m)
                  (au)            (Debye)         (10**-30 SI)
   Tot        0.704302D+00      0.179016D+01      0.597132D+01
   x         -0.704232D+00     -0.178998D+01     -0.597073D+01
   y         -0.997731D-02     -0.253598D-01     -0.845911D-01
   z          0.000000D+00      0.000000D+00      0.000000D+00

 Dipole polarizability, Alpha (input orientation).
 (esu units = cm**3 , SI units = C**2 m**2 J**-1)
 Alpha(0;0):
               (au)            (10**-24 esu)      (10**-40 SI)
   iso        0.389102D+01      0.576589D+00      0.641542D+00
   aniso      0.345266D+01      0.511632D+00      0.569267D+00
   xx         0.618099D+01      0.915928D+00      0.101911D+01
   yx         0.514363D-01      0.762208D-02      0.848071D-02
   yy         0.255117D+01      0.378044D+00      0.420631D+00
   zx        -0.783802D-04     -0.116147D-04     -0.129231D-04
   zy         0.553233D-02      0.819807D-03      0.912159D-03
   zz         0.294089D+01      0.435795D+00      0.484887D+00

 ----------------------------------------------------------------------

 Dipole orientation:
     8         -0.01664932          1.17516484          0.39494089
     1         -0.01664932          1.17516484          2.23842827

 Electric dipole moment (dipole orientation):
 (Debye = 10**-18 statcoulomb cm , SI units = C m)
                  (au)            (Debye)         (10**-30 SI)
   Tot        0.704302D+00      0.179016D+01      0.597132D+01
   x          0.000000D+00      0.000000D+00      0.000000D+00
   y          0.000000D+00      0.000000D+00      0.000000D+00
   z          0.704302D+00      0.179016D+01      0.597132D+01

 Dipole polarizability, Alpha (dipole orientation).
 (esu units = cm**3 , SI units = C**2 m**2 J**-1)
 Alpha(0;0):
               (au)            (10**-24 esu)      (10**-40 SI)
   iso        0.389102D+01      0.576589D+00      0.641542D+00
   aniso      0.345266D+01      0.511632D+00      0.569267D+00
   xx         0.294066D+01      0.435760D+00      0.484849D+00
   yx         0.110613D-01      0.163912D-02      0.182377D-02
   yy         0.255068D+01      0.377971D+00      0.420550D+00
   zx         0.000000D+00      0.000000D+00      0.000000D+00
   zy         0.000000D+00      0.000000D+00      0.000000D+00
   zz         0.618172D+01      0.916036D+00      0.101923D+01

 ----------------------------------------------------------------------
 Unable to Open any file for archive entry.
 1\1\GINC-HPC-I30-13\Freq\UM062X\6-31G(d,p)\H1O1(2)\GDB20\05-Oct-2024\0
 \\#N Geom=AllCheck Guess=TCheck SCRF=Check GenChk UM062X/6-31G(d,p) Fr
 eq\\created with so and so tool\\0,2\O,-0.2177831891,0.6189098013,0.\H
 ,-1.1932168109,0.6050901987,0.\\Version=EM64L-G16RevC.01\HF=-75.693634
 \S2=0.752077\S2-1=0.\S2A=0.750003\RMSD=3.509e-10\RMSF=4.562e-09\ZeroPo
 int=0.0086099\Thermal=0.0109703\ETot=-75.6826637\HTot=-75.6817195\GTot
 =-75.701952\Dipole=-0.7042317,-0.0099773,0.\DipoleDeriv=-0.0921747,0.0
 0411,0.0000003,0.00411,-0.3822111,-0.0000219,0.0000003,-0.0000219,-0.3
 838124,0.0921747,-0.00411,-0.0000003,-0.00411,0.3822111,0.0000219,-0.0
 000003,0.0000219,0.3838124\Polar=6.1809885,0.0514363,2.5511688,-0.0000
 784,0.0055323,2.9408914\Quadrupole=0.6970068,-0.7686285,0.0716217,0.02
 07688,-0.0001687,0.0119097\PG=C*V [C*(H1O1)]\NImag=0\\0.51236036,0.007
 24626,0.00099776,0.00000021,-0.00001503,-0.00016555,-0.51236036,-0.007
 24626,-0.00000021,0.51236036,-0.00724626,-0.00099776,0.00001503,0.0072
 4626,0.00099776,-0.00000021,0.00001503,0.00016555,0.00000021,-0.000015
 03,-0.00016555\\0.,0.,0.,0.,0.,0.\\\@
 The archive entry for this job was punched.


 WE MIGHT AS WELL ATTEMPT TO INTRODUCE A NEW PLANET 
 INTO THE SOLAR SYSTEM, OR TO ANNIHILATE ONE ALREADYIN EXISTENCE, 
 AS TO CREATE OR DESTROY A PARTICLE OF HYDROGEN.
 ALL THE CHANGES WE CAN PRODUCE CONSIST IN SEPARATING PARTICLES
 THAT ARE IN A STATE OF ... COMBINATION, AND JOINING 
 THOSE THAT WERE PREVIOUSLY AT A DISTANCE.

                                    -- JOHN DALTON, 1810
 Job cpu time:       0 days  0 hours  0 minutes  7.8 seconds.
 Elapsed time:       0 days  0 hours  0 minutes  7.7 seconds.
 File lengths (MBytes):  RWF=    136 Int=      0 D2E=      0 Chk=     16 Scr=     16
 Normal termination of Gaussian 16 at Sat Oct  5 18:31:30 2024.
