 Entering Gaussian System, Link 0=g16
 Initial command:
 /gpfs/research/software/gaussian16/amd/g16/l1.exe "/gpfs/home/gdb20/code/input_macros/temp/oh_radical_m08-hx_6-31++Gdp/Gau-1916185.inp" -scrdir="/gpfs/home/gdb20/code/input_macros/temp/oh_radical_m08-hx_6-31++Gdp/"
 Entering Link 1 = /gpfs/research/software/gaussian16/amd/g16/l1.exe PID=   1916187.
  
 Copyright (c) 1988-2019, Gaussian, Inc.  All Rights Reserved.
  
 This is part of the Gaussian(R) 16 program.  It is based on
 the Gaussian(R) 09 system (copyright 2009, Gaussian, Inc.),
 the Gaussian(R) 03 system (copyright 2003, Gaussian, Inc.),
 the Gaussian(R) 98 system (copyright 1998, Gaussian, Inc.),
 the Gaussian(R) 94 system (copyright 1995, Gaussian, Inc.),
 the Gaussian 92(TM) system (copyright 1992, Gaussian, Inc.),
 the Gaussian 90(TM) system (copyright 1990, Gaussian, Inc.),
 the Gaussian 88(TM) system (copyright 1988, Gaussian, Inc.),
 the Gaussian 86(TM) system (copyright 1986, Carnegie Mellon
 University), and the Gaussian 82(TM) system (copyright 1983,
 Carnegie Mellon University). Gaussian is a federally registered
 trademark of Gaussian, Inc.
  
 This software contains proprietary and confidential information,
 including trade secrets, belonging to Gaussian, Inc.
  
 This software is provided under written license and may be
 used, copied, transmitted, or stored only in accord with that
 written license.
  
 The following legend is applicable only to US Government
 contracts under FAR:
  
                    RESTRICTED RIGHTS LEGEND
  
 Use, reproduction and disclosure by the US Government is
 subject to restrictions as set forth in subparagraphs (a)
 and (c) of the Commercial Computer Software - Restricted
 Rights clause in FAR 52.227-19.
  
 Gaussian, Inc.
 340 Quinnipiac St., Bldg. 40, Wallingford CT 06492
  
  
 ---------------------------------------------------------------
 Warning -- This program may not be used in any manner that
 competes with the business of Gaussian, Inc. or will provide
 assistance to any competitor of Gaussian, Inc.  The licensee
 of this program is prohibited from giving any competitor of
 Gaussian, Inc. access to this program.  By using this program,
 the user acknowledges that Gaussian, Inc. is engaged in the
 business of creating and licensing software in the field of
 computational chemistry and represents and warrants to the
 licensee that it is not a competitor of Gaussian, Inc. and that
 it will not use this program in any manner prohibited above.
 ---------------------------------------------------------------
  

 Cite this work as:
 Gaussian 16, Revision C.01,
 M. J. Frisch, G. W. Trucks, H. B. Schlegel, G. E. Scuseria, 
 M. A. Robb, J. R. Cheeseman, G. Scalmani, V. Barone, 
 G. A. Petersson, H. Nakatsuji, X. Li, M. Caricato, A. V. Marenich, 
 J. Bloino, B. G. Janesko, R. Gomperts, B. Mennucci, H. P. Hratchian, 
 J. V. Ortiz, A. F. Izmaylov, J. L. Sonnenberg, D. Williams-Young, 
 F. Ding, F. Lipparini, F. Egidi, J. Goings, B. Peng, A. Petrone, 
 T. Henderson, D. Ranasinghe, V. G. Zakrzewski, J. Gao, N. Rega, 
 G. Zheng, W. Liang, M. Hada, M. Ehara, K. Toyota, R. Fukuda, 
 J. Hasegawa, M. Ishida, T. Nakajima, Y. Honda, O. Kitao, H. Nakai, 
 T. Vreven, K. Throssell, J. A. Montgomery, Jr., J. E. Peralta, 
 F. Ogliaro, M. J. Bearpark, J. J. Heyd, E. N. Brothers, K. N. Kudin, 
 V. N. Staroverov, T. A. Keith, R. Kobayashi, J. Normand, 
 K. Raghavachari, A. P. Rendell, J. C. Burant, S. S. Iyengar, 
 J. Tomasi, M. Cossi, J. M. Millam, M. Klene, C. Adamo, R. Cammi, 
 J. W. Ochterski, R. L. Martin, K. Morokuma, O. Farkas, 
 J. B. Foresman, and D. J. Fox, Gaussian, Inc., Wallingford CT, 2019.
 
 ******************************************
 Gaussian 16:  EM64L-G16RevC.01  3-Jul-2019
                 5-Oct-2024 
 ******************************************
 %nprocshared=1
 Will use up to    1 processors via shared memory.
 %mem=2gb
 %chk=/gpfs/home/gdb20/code/input_macros/temp/oh_radical_m08-hx_6-31++Gdp/oh_radi
 cal_m08-hx_6-31++Gdp.chk
 ---------------------------
 #um08hx/6-31g(d,p) OPT FREQ
 ---------------------------
 1/18=20,19=15,26=3,38=1/1,3;
 2/9=110,12=2,17=6,18=5,40=1/2;
 3/5=1,6=6,7=101,11=2,25=1,30=1,71=1,74=-74,116=2/1,2,3;
 4//1;
 5/5=2,38=5/2;
 6/7=2,8=2,9=2,10=2,28=1/1;
 7//1,2,3,16;
 1/18=20,19=15,26=3/3(2);
 2/9=110/2;
 99//99;
 2/9=110/2;
 3/5=1,6=6,7=101,11=2,25=1,30=1,71=1,74=-74,116=2/1,2,3;
 4/5=5,16=3,69=1/1;
 5/5=2,38=5/2;
 7//1,2,3,16;
 1/18=20,19=15,26=3/3(-5);
 2/9=110/2;
 6/7=2,8=2,9=2,10=2,19=2,28=1/1;
 99/9=1/99;
 ---------------------------
 created with so and so tool
 ---------------------------
 Symbolic Z-matrix:
 Charge =  0 Multiplicity = 2
 O                    -0.282     0.618     0. 
 H                    -1.129     0.606     0. 
 

 GradGradGradGradGradGradGradGradGradGradGradGradGradGradGradGradGradGrad
 Berny optimization.
 Initialization pass.
                           ----------------------------
                           !    Initial Parameters    !
                           ! (Angstroms and Degrees)  !
 --------------------------                            --------------------------
 ! Name  Definition              Value          Derivative Info.                !
 --------------------------------------------------------------------------------
 ! R1    R(1,2)                  0.8471         estimate D2E/DX2                !
 --------------------------------------------------------------------------------
 Trust Radius=3.00D-01 FncErr=1.00D-07 GrdErr=1.00D-06 EigMax=2.50D+02 EigMin=1.00D-04
 Number of steps in this run=     20 maximum allowed number of steps=    100.
 GradGradGradGradGradGradGradGradGradGradGradGradGradGradGradGradGradGrad

                          Input orientation:                          
 ---------------------------------------------------------------------
 Center     Atomic      Atomic             Coordinates (Angstroms)
 Number     Number       Type             X           Y           Z
 ---------------------------------------------------------------------
      1          8           0       -0.282000    0.618000    0.000000
      2          1           0       -1.129000    0.606000    0.000000
 ---------------------------------------------------------------------
 Stoichiometry    HO(2)
 Framework group  C*V[C*(HO)]
 Deg. of freedom     1
 Full point group                 C*V     NOp   4
 Largest Abelian subgroup         C2V     NOp   4
 Largest concise Abelian subgroup C1      NOp   1
                         Standard orientation:                         
 ---------------------------------------------------------------------
 Center     Atomic      Atomic             Coordinates (Angstroms)
 Number     Number       Type             X           Y           Z
 ---------------------------------------------------------------------
      1          8           0        0.000000    0.000000    0.094121
      2          1           0       -0.000000    0.000000   -0.752964
 ---------------------------------------------------------------------
 Rotational constants (GHZ):           0.0000000         742.8738155         742.8738155
 Standard basis: 6-31G(d,p) (6D, 7F)
 There are    11 symmetry adapted cartesian basis functions of A1  symmetry.
 There are     1 symmetry adapted cartesian basis functions of A2  symmetry.
 There are     4 symmetry adapted cartesian basis functions of B1  symmetry.
 There are     4 symmetry adapted cartesian basis functions of B2  symmetry.
 There are    11 symmetry adapted basis functions of A1  symmetry.
 There are     1 symmetry adapted basis functions of A2  symmetry.
 There are     4 symmetry adapted basis functions of B1  symmetry.
 There are     4 symmetry adapted basis functions of B2  symmetry.
    20 basis functions,    35 primitive gaussians,    20 cartesian basis functions
     5 alpha electrons        4 beta electrons
       nuclear repulsion energy         4.9976303195 Hartrees.
 NAtoms=    2 NActive=    2 NUniq=    2 SFac= 1.00D+00 NAtFMM=   60 NAOKFM=F Big=F
 Integral buffers will be    131072 words long.
 Raffenetti 2 integral format.
 Two-electron integral symmetry is turned on.
 One-electron integrals computed using PRISM.
 NBasis=    20 RedAO= T EigKep=  2.46D-02  NBF=    11     1     4     4
 NBsUse=    20 1.00D-06 EigRej= -1.00D+00 NBFU=    11     1     4     4
 ExpMin= 1.61D-01 ExpMax= 5.48D+03 ExpMxC= 8.25D+02 IAcc=3 IRadAn=         5 AccDes= 0.00D+00
 Harris functional with IExCor= 1009 and IRadAn=       5 diagonalized for initial guess.
 HarFok:  IExCor= 1009 AccDes= 0.00D+00 IRadAn=         5 IDoV= 1 UseB2=F ITyADJ=14
 ICtDFT=  3500011 ScaDFX=  1.000000  1.000000  1.000000  1.000000
 FoFCou: FMM=F IPFlag=           0 FMFlag=      100000 FMFlg1=           0
         NFxFlg=           0 DoJE=T BraDBF=F KetDBF=T FulRan=T
         wScrn=  0.000000 ICntrl=       500 IOpCl=  0 I1Cent=   200000004 NGrid=           0
         NMat0=    1 NMatS0=      1 NMatT0=    0 NMatD0=    1 NMtDS0=    0 NMtDT0=    0
 Petite list used in FoFCou.
 Initial guess orbital symmetries:
 Alpha Orbitals:
       Occupied  (SG) (SG) (SG) (PI) (PI)
       Virtual   (SG) (SG) (PI) (PI) (SG) (SG) (PI) (PI) (DLTA)
                 (DLTA) (SG) (PI) (PI) (SG) (SG)
 Beta  Orbitals:
       Occupied  (SG) (SG) (SG) (PI)
       Virtual   (PI) (SG) (SG) (PI) (PI) (SG) (SG) (PI) (PI) (DLTA)
                 (DLTA) (SG) (PI) (PI) (SG) (SG)
 Initial guess <Sx>= 0.0000 <Sy>= 0.0000 <Sz>= 0.5000 <S**2>= 0.7500 S= 0.5000
 Keep R1 and R2 ints in memory in symmetry-blocked form, NReq=887456.
 Requested convergence on RMS density matrix=1.00D-08 within 128 cycles.
 Requested convergence on MAX density matrix=1.00D-06.
 Requested convergence on             energy=1.00D-06.
 No special actions if energy rises.
 Integral accuracy reduced to 1.0D-05 until final iterations.
 Initial convergence to 1.0D-05 achieved.  Increase integral accuracy.
 SCF Done:  E(UM08HX) =  -75.6696759869     A.U. after   12 cycles
            NFock= 12  Conv=0.47D-08     -V/T= 2.0042
 <Sx>= 0.0000 <Sy>= 0.0000 <Sz>= 0.5000 <S**2>= 0.7512 S= 0.5006
 <L.S>= 0.000000000000E+00
 Annihilation of the first spin contaminant:
 S**2 before annihilation     0.7512,   after     0.7500

 **********************************************************************

            Population analysis using the SCF Density.

 **********************************************************************

 Orbital symmetries:
 Alpha Orbitals:
       Occupied  (SG) (SG) (SG) (PI) (PI)
       Virtual   (SG) (SG) (PI) (SG) (PI) (SG) (PI) (PI) (?A) (?A)
                 (?A) (PI) (PI) (SG) (SG)
 Beta  Orbitals:
       Occupied  (SG) (SG) (SG) (?A)
       Virtual   (?A) (SG) (SG) (SG) (?A) (?A) (SG) (PI) (PI) (DLTA)
                 (DLTA) (SG) (PI) (PI) (SG) (SG)
 Unable to determine electronic state:  an orbital has unidentified symmetry.
 Alpha  occ. eigenvalues --  -19.68040  -1.16832  -0.57075  -0.48821  -0.42575
 Alpha virt. eigenvalues --    0.12906   0.87883   0.88800   0.93921   0.94373
 Alpha virt. eigenvalues --    1.13593   1.59481   1.63504   1.80410   1.80899
 Alpha virt. eigenvalues --    2.58141   2.78876   2.82578   3.44169   3.78614
  Beta  occ. eigenvalues --  -19.64946  -1.09745  -0.53792  -0.39683
  Beta virt. eigenvalues --   -0.08182   0.13228   0.88566   0.95130   0.95216
  Beta virt. eigenvalues --    1.00955   1.15409   1.64246   1.65206   1.87949
  Beta virt. eigenvalues --    1.89722   2.61983   2.81974   2.82291   3.50852
  Beta virt. eigenvalues --    3.76446
          Condensed to atoms (all electrons):
               1          2
     1  O    8.047131   0.284948
     2  H    0.284948   0.382974
          Atomic-Atomic Spin Densities.
               1          2
     1  O    1.016449   0.004095
     2  H    0.004095  -0.024638
 Mulliken charges and spin densities:
               1          2
     1  O   -0.332078   1.020543
     2  H    0.332078  -0.020543
 Sum of Mulliken charges =  -0.00000   1.00000
 Mulliken charges and spin densities with hydrogens summed into heavy atoms:
               1          2
     1  O   -0.000000   1.000000
 Electronic spatial extent (au):  <R**2>=             14.2531
 Charge=             -0.0000 electrons
 Dipole moment (field-independent basis, Debye):
    X=             -0.0000    Y=              0.0000    Z=             -1.7190  Tot=              1.7190
 Quadrupole moment (field-independent basis, Debye-Ang):
   XX=             -5.1618   YY=             -6.2926   ZZ=             -4.6529
   XY=              0.0000   XZ=              0.0000   YZ=             -0.0000
 Traceless Quadrupole moment (field-independent basis, Debye-Ang):
   XX=              0.2073   YY=             -0.9235   ZZ=              0.7162
   XY=              0.0000   XZ=              0.0000   YZ=             -0.0000
 Octapole moment (field-independent basis, Debye-Ang**2):
  XXX=             -0.0000  YYY=              0.0000  ZZZ=             -1.6672  XYY=             -0.0000
  XXY=              0.0000  XXZ=             -0.2593  XZZ=             -0.0000  YZZ=              0.0000
  YYZ=             -0.3424  XYZ=              0.0000
 Hexadecapole moment (field-independent basis, Debye-Ang**3):
 XXXX=             -3.2001 YYYY=             -4.4499 ZZZZ=             -4.5917 XXXY=              0.0000
 XXXZ=             -0.0000 YYYX=              0.0000 YYYZ=              0.0000 ZZZX=             -0.0000
 ZZZY=              0.0000 XXYY=             -1.2750 XXZZ=             -1.4325 YYZZ=             -1.6523
 XXYZ=              0.0000 YYXZ=             -0.0000 ZZXY=              0.0000
 N-N= 4.997630319477D+00 E-N=-1.890884949810D+02  KE= 7.535648523781D+01
 Symmetry A1   KE= 6.812844497124D+01
 Symmetry A2   KE= 6.896622967018D-35
 Symmetry B1   KE= 2.488352072370D+00
 Symmetry B2   KE= 4.739688194200D+00
 Symmetry A1   SP=-1.137105817492D-14
 Symmetry A2   SP= 5.085154464022D-36
 Symmetry B1   SP= 1.000000000000D+00
 Symmetry B2   SP=-4.471900280634D-15
                          Isotropic Fermi Contact Couplings
        Atom                 a.u.       MegaHertz       Gauss      10(-4) cm-1
     1  O(17)              0.05520     -33.46221     -11.94015     -11.16179
     2  H(1)              -0.01192     -53.27894     -19.01125     -17.77194
 --------------------------------------------------------
       Center         ----  Spin Dipole Couplings  ----
                      3XX-RR        3YY-RR        3ZZ-RR
 --------------------------------------------------------
     1   Atom        3.562290     -1.793221     -1.769069
     2   Atom       -0.023583     -0.180292      0.203875
 --------------------------------------------------------
                        XY            XZ            YZ
 --------------------------------------------------------
     1   Atom       -0.000000     -0.000000     -0.000000
     2   Atom        0.000000     -0.000000     -0.000000
 --------------------------------------------------------


 ---------------------------------------------------------------------------------
              Anisotropic Spin Dipole Couplings in Principal Axis System
 ---------------------------------------------------------------------------------

       Atom             a.u.   MegaHertz   Gauss  10(-4) cm-1        Axes

              Baa    -1.7932   129.756    46.300    43.282  0.0000  1.0000 -0.0000
     1 O(17)  Bbb    -1.7691   128.009    45.677    42.699  0.0000  0.0000  1.0000
              Bcc     3.5623  -257.765   -91.977   -85.981  1.0000 -0.0000 -0.0000
 
              Baa    -0.1803   -96.195   -34.325   -32.087 -0.0000  1.0000 -0.0000
     2 H(1)   Bbb    -0.0236   -12.583    -4.490    -4.197  1.0000  0.0000 -0.0000
              Bcc     0.2039   108.778    38.815    36.284  0.0000  0.0000  1.0000
 

 ---------------------------------------------------------------------------------

 Calling FoFJK, ICntrl=      2127 FMM=F ISym2X=1 I1Cent= 0 IOpClX= 1 NMat=1 NMatS=1 NMatT=0.
 ***** Axes restored to original set *****
 -------------------------------------------------------------------
 Center     Atomic                   Forces (Hartrees/Bohr)
 Number     Number              X              Y              Z
 -------------------------------------------------------------------
      1        8           0.197197038    0.002793819   -0.000000000
      2        1          -0.197197038   -0.002793819    0.000000000
 -------------------------------------------------------------------
 Cartesian Forces:  Max     0.197197038 RMS     0.113863189

 GradGradGradGradGradGradGradGradGradGradGradGradGradGradGradGradGradGrad
 Berny optimization.
 FormGI is forming the generalized inverse of G from B-inverse, IUseBI=4.
 Internal  Forces:  Max     0.197216828 RMS     0.197216828
 Search for a local minimum.
 Step number   1 out of a maximum of   20
 All quantities printed in internal units (Hartrees-Bohrs-Radians)
 Mixed Optimization -- RFO/linear search
 Second derivative matrix not updated -- first step.
 The second derivative matrix:
                          R1
           R1           0.89046
 ITU=  0
     Eigenvalues ---    0.89046
 RFO step:  Lambda=-4.17241084D-02 EMin= 8.90458240D-01
 Linear search not attempted -- first point.
 Iteration  1 RMS(Cart)=  0.14142136 RMS(Int)=  0.01156465
 Iteration  2 RMS(Cart)=  0.00817744 RMS(Int)=  0.00000000
 Iteration  3 RMS(Cart)=  0.00000000 RMS(Int)=  0.00000000
 ClnCor:  largest displacement from symmetrization is 4.19D-20 for atom     2.
 Variable       Old X    -DE/DX   Delta X   Delta X   Delta X     New X
                                 (Linear)    (Quad)   (Total)
    R1        1.60076   0.19722   0.00000   0.21156   0.21156   1.81232
         Item               Value     Threshold  Converged?
 Maximum Force            0.197217     0.000450     NO 
 RMS     Force            0.197217     0.000300     NO 
 Maximum Displacement     0.105772     0.001800     NO 
 RMS     Displacement     0.149599     0.001200     NO 
 Predicted change in Energy=-2.179583D-02
 GradGradGradGradGradGradGradGradGradGradGradGradGradGradGradGradGradGrad

                          Input orientation:                          
 ---------------------------------------------------------------------
 Center     Atomic      Atomic             Coordinates (Angstroms)
 Number     Number       Type             X           Y           Z
 ---------------------------------------------------------------------
      1          8           0       -0.226028    0.618793   -0.000000
      2          1           0       -1.184972    0.605207    0.000000
 ---------------------------------------------------------------------
 Stoichiometry    HO(2)
 Framework group  C*V[C*(HO)]
 Deg. of freedom     1
 Full point group                 C*V     NOp   4
 Largest Abelian subgroup         C2V     NOp   4
 Largest concise Abelian subgroup C1      NOp   1
                         Standard orientation:                         
 ---------------------------------------------------------------------
 Center     Atomic      Atomic             Coordinates (Angstroms)
 Number     Number       Type             X           Y           Z
 ---------------------------------------------------------------------
      1          8           0        0.000000    0.000000    0.106560
      2          1           0        0.000000    0.000000   -0.852480
 ---------------------------------------------------------------------
 Rotational constants (GHZ):           0.0000000         579.5560182         579.5560182
 Standard basis: 6-31G(d,p) (6D, 7F)
 There are    11 symmetry adapted cartesian basis functions of A1  symmetry.
 There are     1 symmetry adapted cartesian basis functions of A2  symmetry.
 There are     4 symmetry adapted cartesian basis functions of B1  symmetry.
 There are     4 symmetry adapted cartesian basis functions of B2  symmetry.
 There are    11 symmetry adapted basis functions of A1  symmetry.
 There are     1 symmetry adapted basis functions of A2  symmetry.
 There are     4 symmetry adapted basis functions of B1  symmetry.
 There are     4 symmetry adapted basis functions of B2  symmetry.
    20 basis functions,    35 primitive gaussians,    20 cartesian basis functions
     5 alpha electrons        4 beta electrons
       nuclear repulsion energy         4.4142234372 Hartrees.
 NAtoms=    2 NActive=    2 NUniq=    2 SFac= 1.00D+00 NAtFMM=   60 NAOKFM=F Big=F
 Integral buffers will be    131072 words long.
 Raffenetti 2 integral format.
 Two-electron integral symmetry is turned on.
 One-electron integrals computed using PRISM.
 NBasis=    20 RedAO= T EigKep=  2.97D-02  NBF=    11     1     4     4
 NBsUse=    20 1.00D-06 EigRej= -1.00D+00 NBFU=    11     1     4     4
 Initial guess from the checkpoint file:  "/gpfs/home/gdb20/code/input_macros/temp/oh_radical_m08-hx_6-31++Gdp/oh_radical_m08-hx_6-31++Gdp.chk"
 B after Tr=     0.000000   -0.000000    0.000000
         Rot=    1.000000    0.000000    0.000000   -0.000000 Ang=   0.00 deg.
 Initial guess orbital symmetries:
 Alpha Orbitals:
       Occupied  (SG) (SG) (SG) (PI) (PI)
       Virtual   (SG) (SG) (PI) (SG) (PI) (SG) (PI) (PI) (?A) (?A)
                 (?A) (PI) (PI) (SG) (SG)
 Beta  Orbitals:
       Occupied  (SG) (SG) (SG) (?A)
       Virtual   (?A) (SG) (SG) (SG) (?A) (?A) (SG) (PI) (PI) (DLTA)
                 (DLTA) (SG) (PI) (PI) (SG) (SG)
 Initial guess <Sx>= 0.0000 <Sy>= 0.0000 <Sz>= 0.5000 <S**2>= 0.7513 S= 0.5007
 ExpMin= 1.61D-01 ExpMax= 5.48D+03 ExpMxC= 8.25D+02 IAcc=3 IRadAn=         5 AccDes= 0.00D+00
 Harris functional with IExCor= 1009 and IRadAn=       5 diagonalized for initial guess.
 HarFok:  IExCor= 1009 AccDes= 0.00D+00 IRadAn=         5 IDoV= 1 UseB2=F ITyADJ=14
 ICtDFT=  3500011 ScaDFX=  1.000000  1.000000  1.000000  1.000000
 FoFCou: FMM=F IPFlag=           0 FMFlag=      100000 FMFlg1=           0
         NFxFlg=           0 DoJE=T BraDBF=F KetDBF=T FulRan=T
         wScrn=  0.000000 ICntrl=       500 IOpCl=  0 I1Cent=   200000004 NGrid=           0
         NMat0=    1 NMatS0=      1 NMatT0=    0 NMatD0=    1 NMtDS0=    0 NMtDT0=    0
 Petite list used in FoFCou.
 Keep R1 and R2 ints in memory in symmetry-blocked form, NReq=887456.
 Requested convergence on RMS density matrix=1.00D-08 within 128 cycles.
 Requested convergence on MAX density matrix=1.00D-06.
 Requested convergence on             energy=1.00D-06.
 No special actions if energy rises.
 Integral accuracy reduced to 1.0D-05 until final iterations.
 Initial convergence to 1.0D-05 achieved.  Increase integral accuracy.
 SCF Done:  E(UM08HX) =  -75.6898731984     A.U. after   14 cycles
            NFock= 14  Conv=0.38D-08     -V/T= 2.0079
 <Sx>= 0.0000 <Sy>= 0.0000 <Sz>= 0.5000 <S**2>= 0.7515 S= 0.5007
 <L.S>= 0.000000000000E+00
 Annihilation of the first spin contaminant:
 S**2 before annihilation     0.7515,   after     0.7500
 Calling FoFJK, ICntrl=      2127 FMM=F ISym2X=1 I1Cent= 0 IOpClX= 1 NMat=1 NMatS=1 NMatT=0.
 ***** Axes restored to original set *****
 -------------------------------------------------------------------
 Center     Atomic                   Forces (Hartrees/Bohr)
 Number     Number              X              Y              Z
 -------------------------------------------------------------------
      1        8           0.016191129    0.000229390   -0.000000000
      2        1          -0.016191129   -0.000229390    0.000000000
 -------------------------------------------------------------------
 Cartesian Forces:  Max     0.016191129 RMS     0.009348891

 GradGradGradGradGradGradGradGradGradGradGradGradGradGradGradGradGradGrad
 Berny optimization.
 Using GEDIIS/GDIIS optimizer.
 Internal  Forces:  Max     0.016192754 RMS     0.016192754
 Search for a local minimum.
 Step number   2 out of a maximum of   20
 All quantities printed in internal units (Hartrees-Bohrs-Radians)
 Mixed Optimization -- RFO/linear search
 Update second derivatives using D2CorX and points    1    2
 DE= -2.02D-02 DEPred=-2.18D-02 R= 9.27D-01
 TightC=F SS=  1.41D+00  RLast= 2.12D-01 DXNew= 5.0454D-01 6.3469D-01
 Trust test= 9.27D-01 RLast= 2.12D-01 DXMaxT set to 5.05D-01
 The second derivative matrix:
                          R1
           R1           0.85564
 ITU=  1  0
 Use linear search instead of GDIIS.
     Eigenvalues ---    0.85564
 RFO step:  Lambda= 0.00000000D+00 EMin= 8.55644257D-01
 Quartic linear search produced a step of  0.14727.
 Iteration  1 RMS(Cart)=  0.02203173 RMS(Int)=  0.00000000
 Iteration  2 RMS(Cart)=  0.00000000 RMS(Int)=  0.00000000
 ClnCor:  largest displacement from symmetrization is 1.35D-15 for atom     2.
 Variable       Old X    -DE/DX   Delta X   Delta X   Delta X     New X
                                 (Linear)    (Quad)   (Total)
    R1        1.81232   0.01619   0.03116   0.00000   0.03116   1.84348
         Item               Value     Threshold  Converged?
 Maximum Force            0.016193     0.000450     NO 
 RMS     Force            0.016193     0.000300     NO 
 Maximum Displacement     0.015577     0.001800     NO 
 RMS     Displacement     0.022032     0.001200     NO 
 Predicted change in Energy=-8.919966D-05
 GradGradGradGradGradGradGradGradGradGradGradGradGradGradGradGradGradGrad

                          Input orientation:                          
 ---------------------------------------------------------------------
 Center     Atomic      Atomic             Coordinates (Angstroms)
 Number     Number       Type             X           Y           Z
 ---------------------------------------------------------------------
      1          8           0       -0.217785    0.618910   -0.000000
      2          1           0       -1.193215    0.605090    0.000000
 ---------------------------------------------------------------------
 Stoichiometry    HO(2)
 Framework group  C*V[C*(HO)]
 Deg. of freedom     1
 Full point group                 C*V     NOp   4
 Largest Abelian subgroup         C2V     NOp   4
 Largest concise Abelian subgroup C1      NOp   1
                         Standard orientation:                         
 ---------------------------------------------------------------------
 Center     Atomic      Atomic             Coordinates (Angstroms)
 Number     Number       Type             X           Y           Z
 ---------------------------------------------------------------------
      1          8           0        0.000000   -0.000000    0.108392
      2          1           0       -0.000000    0.000000   -0.867136
 ---------------------------------------------------------------------
 Rotational constants (GHZ):           0.0000000         560.1308572         560.1308572
 Standard basis: 6-31G(d,p) (6D, 7F)
 There are    11 symmetry adapted cartesian basis functions of A1  symmetry.
 There are     1 symmetry adapted cartesian basis functions of A2  symmetry.
 There are     4 symmetry adapted cartesian basis functions of B1  symmetry.
 There are     4 symmetry adapted cartesian basis functions of B2  symmetry.
 There are    11 symmetry adapted basis functions of A1  symmetry.
 There are     1 symmetry adapted basis functions of A2  symmetry.
 There are     4 symmetry adapted basis functions of B1  symmetry.
 There are     4 symmetry adapted basis functions of B2  symmetry.
    20 basis functions,    35 primitive gaussians,    20 cartesian basis functions
     5 alpha electrons        4 beta electrons
       nuclear repulsion energy         4.3396164968 Hartrees.
 NAtoms=    2 NActive=    2 NUniq=    2 SFac= 1.00D+00 NAtFMM=   60 NAOKFM=F Big=F
 Integral buffers will be    131072 words long.
 Raffenetti 2 integral format.
 Two-electron integral symmetry is turned on.
 One-electron integrals computed using PRISM.
 NBasis=    20 RedAO= T EigKep=  3.05D-02  NBF=    11     1     4     4
 NBsUse=    20 1.00D-06 EigRej= -1.00D+00 NBFU=    11     1     4     4
 Initial guess from the checkpoint file:  "/gpfs/home/gdb20/code/input_macros/temp/oh_radical_m08-hx_6-31++Gdp/oh_radical_m08-hx_6-31++Gdp.chk"
 B after Tr=     0.000000   -0.000000   -0.000000
         Rot=    1.000000   -0.000000   -0.000000    0.000000 Ang=   0.00 deg.
 Initial guess orbital symmetries:
 Alpha Orbitals:
       Occupied  (SG) (SG) (SG) (PI) (PI)
       Virtual   (SG) (SG) (PI) (SG) (PI) (SG) (PI) (PI) (?A) (?A)
                 (?A) (PI) (PI) (SG) (SG)
 Beta  Orbitals:
       Occupied  (SG) (SG) (SG) (?A)
       Virtual   (?A) (SG) (SG) (SG) (?A) (?A) (SG) (PI) (PI) (DLTA)
                 (DLTA) (SG) (PI) (PI) (SG) (SG)
 Initial guess <Sx>= 0.0000 <Sy>= 0.0000 <Sz>= 0.5000 <S**2>= 0.7515 S= 0.5007
 Keep R1 and R2 ints in memory in symmetry-blocked form, NReq=887456.
 Requested convergence on RMS density matrix=1.00D-08 within 128 cycles.
 Requested convergence on MAX density matrix=1.00D-06.
 Requested convergence on             energy=1.00D-06.
 No special actions if energy rises.
 SCF Done:  E(UM08HX) =  -75.6901094731     A.U. after    9 cycles
            NFock=  9  Conv=0.99D-09     -V/T= 2.0083
 <Sx>= 0.0000 <Sy>= 0.0000 <Sz>= 0.5000 <S**2>= 0.7515 S= 0.5008
 <L.S>= 0.000000000000E+00
 Annihilation of the first spin contaminant:
 S**2 before annihilation     0.7515,   after     0.7500
 Calling FoFJK, ICntrl=      2127 FMM=F ISym2X=1 I1Cent= 0 IOpClX= 1 NMat=1 NMatS=1 NMatT=0.
 ***** Axes restored to original set *****
 -------------------------------------------------------------------
 Center     Atomic                   Forces (Hartrees/Bohr)
 Number     Number              X              Y              Z
 -------------------------------------------------------------------
      1        8          -0.000718984   -0.000010186    0.000000000
      2        1           0.000718984    0.000010186   -0.000000000
 -------------------------------------------------------------------
 Cartesian Forces:  Max     0.000718984 RMS     0.000415147

 GradGradGradGradGradGradGradGradGradGradGradGradGradGradGradGradGradGrad
 Berny optimization.
 Using GEDIIS/GDIIS optimizer.
 Internal  Forces:  Max     0.000719056 RMS     0.000719056
 Search for a local minimum.
 Step number   3 out of a maximum of   20
 All quantities printed in internal units (Hartrees-Bohrs-Radians)
 Mixed Optimization -- En-DIIS/RFO-DIIS
 Update second derivatives using D2CorX and points    2    3
 DE= -2.36D-04 DEPred=-8.92D-05 R= 2.65D+00
 TightC=F SS=  1.41D+00  RLast= 3.12D-02 DXNew= 8.4853D-01 9.3473D-02
 Trust test= 2.65D+00 RLast= 3.12D-02 DXMaxT set to 5.05D-01
 The second derivative matrix:
                          R1
           R1           0.54278
 ITU=  1  1
 Use linear search instead of GDIIS.
     Eigenvalues ---    0.54278
 RFO step:  Lambda= 0.00000000D+00 EMin= 5.42783374D-01
 Quartic linear search produced a step of -0.04483.
 Iteration  1 RMS(Cart)=  0.00098774 RMS(Int)=  0.00000000
 Iteration  2 RMS(Cart)=  0.00000000 RMS(Int)=  0.00000000
 ClnCor:  largest displacement from symmetrization is 9.16D-16 for atom     2.
 Variable       Old X    -DE/DX   Delta X   Delta X   Delta X     New X
                                 (Linear)    (Quad)   (Total)
    R1        1.84348  -0.00072  -0.00140   0.00000  -0.00140   1.84208
         Item               Value     Threshold  Converged?
 Maximum Force            0.000719     0.000450     NO 
 RMS     Force            0.000719     0.000300     NO 
 Maximum Displacement     0.000698     0.001800     YES
 RMS     Displacement     0.000988     0.001200     YES
 Predicted change in Energy=-4.748754D-07
 GradGradGradGradGradGradGradGradGradGradGradGradGradGradGradGradGradGrad

                          Input orientation:                          
 ---------------------------------------------------------------------
 Center     Atomic      Atomic             Coordinates (Angstroms)
 Number     Number       Type             X           Y           Z
 ---------------------------------------------------------------------
      1          8           0       -0.218154    0.618905   -0.000000
      2          1           0       -1.192846    0.605095    0.000000
 ---------------------------------------------------------------------
 Stoichiometry    HO(2)
 Framework group  C*V[C*(HO)]
 Deg. of freedom     1
 Full point group                 C*V     NOp   4
 Largest Abelian subgroup         C2V     NOp   4
 Largest concise Abelian subgroup C1      NOp   1
                         Standard orientation:                         
 ---------------------------------------------------------------------
 Center     Atomic      Atomic             Coordinates (Angstroms)
 Number     Number       Type             X           Y           Z
 ---------------------------------------------------------------------
      1          8           0        0.000000   -0.000000    0.108310
      2          1           0       -0.000000    0.000000   -0.866479
 ---------------------------------------------------------------------
 Rotational constants (GHZ):           0.0000000         560.9806896         560.9806896
 Standard basis: 6-31G(d,p) (6D, 7F)
 There are    11 symmetry adapted cartesian basis functions of A1  symmetry.
 There are     1 symmetry adapted cartesian basis functions of A2  symmetry.
 There are     4 symmetry adapted cartesian basis functions of B1  symmetry.
 There are     4 symmetry adapted cartesian basis functions of B2  symmetry.
 There are    11 symmetry adapted basis functions of A1  symmetry.
 There are     1 symmetry adapted basis functions of A2  symmetry.
 There are     4 symmetry adapted basis functions of B1  symmetry.
 There are     4 symmetry adapted basis functions of B2  symmetry.
    20 basis functions,    35 primitive gaussians,    20 cartesian basis functions
     5 alpha electrons        4 beta electrons
       nuclear repulsion energy         4.3429072891 Hartrees.
 NAtoms=    2 NActive=    2 NUniq=    2 SFac= 1.00D+00 NAtFMM=   60 NAOKFM=F Big=F
 Integral buffers will be    131072 words long.
 Raffenetti 2 integral format.
 Two-electron integral symmetry is turned on.
 One-electron integrals computed using PRISM.
 NBasis=    20 RedAO= T EigKep=  3.05D-02  NBF=    11     1     4     4
 NBsUse=    20 1.00D-06 EigRej= -1.00D+00 NBFU=    11     1     4     4
 Initial guess from the checkpoint file:  "/gpfs/home/gdb20/code/input_macros/temp/oh_radical_m08-hx_6-31++Gdp/oh_radical_m08-hx_6-31++Gdp.chk"
 B after Tr=    -0.000000    0.000000    0.000000
         Rot=    1.000000    0.000000    0.000000    0.000000 Ang=   0.00 deg.
 Initial guess orbital symmetries:
 Alpha Orbitals:
       Occupied  (SG) (SG) (SG) (PI) (PI)
       Virtual   (SG) (SG) (PI) (SG) (PI) (SG) (PI) (PI) (?A) (?A)
                 (?A) (PI) (PI) (SG) (SG)
 Beta  Orbitals:
       Occupied  (SG) (SG) (SG) (?A)
       Virtual   (?A) (SG) (SG) (SG) (?A) (?A) (SG) (PI) (PI) (DLTA)
                 (DLTA) (SG) (PI) (PI) (SG) (SG)
 Initial guess <Sx>= 0.0000 <Sy>= 0.0000 <Sz>= 0.5000 <S**2>= 0.7515 S= 0.5008
 Keep R1 and R2 ints in memory in symmetry-blocked form, NReq=887456.
 Requested convergence on RMS density matrix=1.00D-08 within 128 cycles.
 Requested convergence on MAX density matrix=1.00D-06.
 Requested convergence on             energy=1.00D-06.
 No special actions if energy rises.
 SCF Done:  E(UM08HX) =  -75.6901099758     A.U. after    7 cycles
            NFock=  7  Conv=0.63D-08     -V/T= 2.0083
 <Sx>= 0.0000 <Sy>= 0.0000 <Sz>= 0.5000 <S**2>= 0.7515 S= 0.5008
 <L.S>= 0.000000000000E+00
 Annihilation of the first spin contaminant:
 S**2 before annihilation     0.7515,   after     0.7500
 Calling FoFJK, ICntrl=      2127 FMM=F ISym2X=1 I1Cent= 0 IOpClX= 1 NMat=1 NMatS=1 NMatT=0.
 ***** Axes restored to original set *****
 -------------------------------------------------------------------
 Center     Atomic                   Forces (Hartrees/Bohr)
 Number     Number              X              Y              Z
 -------------------------------------------------------------------
      1        8          -0.000000040   -0.000000001   -0.000000000
      2        1           0.000000040    0.000000001    0.000000000
 -------------------------------------------------------------------
 Cartesian Forces:  Max     0.000000040 RMS     0.000000023

 GradGradGradGradGradGradGradGradGradGradGradGradGradGradGradGradGradGrad
 Berny optimization.
 Using GEDIIS/GDIIS optimizer.
 Internal  Forces:  Max     0.000000040 RMS     0.000000040
 Search for a local minimum.
 Step number   4 out of a maximum of   20
 All quantities printed in internal units (Hartrees-Bohrs-Radians)
 Mixed Optimization -- En-DIIS/RFO-DIIS
 Swapping is turned off.
 Update second derivatives using D2CorX and points    3    4
 DE= -5.03D-07 DEPred=-4.75D-07 R= 1.06D+00
 Trust test= 1.06D+00 RLast= 1.40D-03 DXMaxT set to 5.05D-01
 The second derivative matrix:
                          R1
           R1           0.51473
 ITU=  0  1
     Eigenvalues ---    0.51473
 En-DIIS/RFO-DIIS/Sim-DIIS IScMMF=       -3 using points:     4    3
 RFO step:  Lambda=-3.16413562D-15.
 DidBck=F Rises=F RFO-DIIS coefs:    1.00006   -0.00006
 Iteration  1 RMS(Cart)=  0.00000006 RMS(Int)=  0.00000000
 ClnCor:  largest displacement from symmetrization is 2.25D-20 for atom     2.
 Variable       Old X    -DE/DX   Delta X   Delta X   Delta X     New X
                                 (Linear)    (Quad)   (Total)
    R1        1.84208  -0.00000  -0.00000   0.00000  -0.00000   1.84208
         Item               Value     Threshold  Converged?
 Maximum Force            0.000000     0.000450     YES
 RMS     Force            0.000000     0.000300     YES
 Maximum Displacement     0.000000     0.001800     YES
 RMS     Displacement     0.000000     0.001200     YES
 Predicted change in Energy=-1.592975D-15
 Optimization completed.
    -- Stationary point found.
                           ----------------------------
                           !   Optimized Parameters   !
                           ! (Angstroms and Degrees)  !
 --------------------------                            --------------------------
 ! Name  Definition              Value          Derivative Info.                !
 --------------------------------------------------------------------------------
 ! R1    R(1,2)                  0.9748         -DE/DX =    0.0                 !
 --------------------------------------------------------------------------------
 GradGradGradGradGradGradGradGradGradGradGradGradGradGradGradGradGradGrad

                          Input orientation:                          
 ---------------------------------------------------------------------
 Center     Atomic      Atomic             Coordinates (Angstroms)
 Number     Number       Type             X           Y           Z
 ---------------------------------------------------------------------
      1          8           0       -0.218154    0.618905    0.000000
      2          1           0       -1.192846    0.605095   -0.000000
 ---------------------------------------------------------------------
 Stoichiometry    HO(2)
 Framework group  C*V[C*(HO)]
 Deg. of freedom     1
 Full point group                 C*V     NOp   4
 Largest Abelian subgroup         C2V     NOp   4
 Largest concise Abelian subgroup C1      NOp   1
                         Standard orientation:                         
 ---------------------------------------------------------------------
 Center     Atomic      Atomic             Coordinates (Angstroms)
 Number     Number       Type             X           Y           Z
 ---------------------------------------------------------------------
      1          8           0       -0.000000   -0.000000    0.108310
      2          1           0        0.000000    0.000000   -0.866479
 ---------------------------------------------------------------------
 Rotational constants (GHZ):           0.0000000         560.9806896         560.9806896

 **********************************************************************

            Population analysis using the SCF Density.

 **********************************************************************

 Orbital symmetries:
 Alpha Orbitals:
       Occupied  (SG) (SG) (SG) (PI) (PI)
       Virtual   (SG) (SG) (PI) (SG) (PI) (SG) (PI) (PI) (?A) (?A)
                 (?A) (PI) (PI) (SG) (SG)
 Beta  Orbitals:
       Occupied  (SG) (SG) (SG) (?A)
       Virtual   (?A) (SG) (SG) (SG) (?A) (?A) (SG) (PI) (PI) (DLTA)
                 (DLTA) (SG) (PI) (PI) (SG) (SG)
 Unable to determine electronic state:  an orbital has unidentified symmetry.
 Alpha  occ. eigenvalues --  -19.69102  -1.12383  -0.54733  -0.48215  -0.42082
 Alpha virt. eigenvalues --    0.10702   0.80131   0.88932   0.90450   0.94542
 Alpha virt. eigenvalues --    1.11645   1.57699   1.61490   1.80962   1.81542
 Alpha virt. eigenvalues --    2.36268   2.63649   2.67061   3.34706   3.51289
  Beta  occ. eigenvalues --  -19.65983  -1.05132  -0.51755  -0.39025
  Beta virt. eigenvalues --   -0.07563   0.11428   0.81042   0.91212   0.95421
  Beta virt. eigenvalues --    1.01312   1.13432   1.62033   1.62771   1.88635
  Beta virt. eigenvalues --    1.90326   2.39700   2.66482   2.66692   3.37360
  Beta virt. eigenvalues --    3.53371
          Condensed to atoms (all electrons):
               1          2
     1  O    8.100461   0.245825
     2  H    0.245825   0.407890
          Atomic-Atomic Spin Densities.
               1          2
     1  O    1.023972   0.003400
     2  H    0.003400  -0.030772
 Mulliken charges and spin densities:
               1          2
     1  O   -0.346285   1.027372
     2  H    0.346285  -0.027372
 Sum of Mulliken charges =   0.00000   1.00000
 Mulliken charges and spin densities with hydrogens summed into heavy atoms:
               1          2
     1  O    0.000000   1.000000
 Electronic spatial extent (au):  <R**2>=             15.0542
 Charge=              0.0000 electrons
 Dipole moment (field-independent basis, Debye):
    X=              0.0000    Y=             -0.0000    Z=             -1.7857  Tot=              1.7857
 Quadrupole moment (field-independent basis, Debye-Ang):
   XX=             -5.2953   YY=             -6.4297   ZZ=             -4.4664
   XY=              0.0000   XZ=             -0.0000   YZ=              0.0000
 Traceless Quadrupole moment (field-independent basis, Debye-Ang):
   XX=              0.1018   YY=             -1.0325   ZZ=              0.9307
   XY=              0.0000   XZ=             -0.0000   YZ=              0.0000
 Octapole moment (field-independent basis, Debye-Ang**2):
  XXX=             -0.0000  YYY=              0.0000  ZZZ=             -1.9056  XYY=             -0.0000
  XXY=              0.0000  XXZ=             -0.1731  XZZ=              0.0000  YZZ=             -0.0000
  YYZ=             -0.2761  XYZ=              0.0000
 Hexadecapole moment (field-independent basis, Debye-Ang**3):
 XXXX=             -3.3514 YYYY=             -4.6085 ZZZZ=             -5.0596 XXXY=              0.0000
 XXXZ=             -0.0000 YYYX=              0.0000 YYYZ=              0.0000 ZZZX=             -0.0000
 ZZZY=              0.0000 XXYY=             -1.3266 XXZZ=             -1.6328 YYZZ=             -1.8568
 XXYZ=              0.0000 YYXZ=             -0.0000 ZZXY=              0.0000
 N-N= 4.342907289105D+00 E-N=-1.876887068955D+02  KE= 7.506897411429D+01
 Symmetry A1   KE= 6.783111724648D+01
 Symmetry A2   KE= 8.708361629982D-35
 Symmetry B1   KE= 2.491343997524D+00
 Symmetry B2   KE= 4.746512870295D+00
 Symmetry A1   SP=-9.620125876464D-16
 Symmetry A2   SP= 5.010787207589D-36
 Symmetry B1   SP= 1.000000000000D+00
 Symmetry B2   SP=-1.476683358925D-16
                          Isotropic Fermi Contact Couplings
        Atom                 a.u.       MegaHertz       Gauss      10(-4) cm-1
     1  O(17)              0.05330     -32.31159     -11.52958     -10.77799
     2  H(1)              -0.01370     -61.22943     -21.84818     -20.42394
 --------------------------------------------------------
       Center         ----  Spin Dipole Couplings  ----
                      3XX-RR        3YY-RR        3ZZ-RR
 --------------------------------------------------------
     1   Atom        3.555912     -1.806073     -1.749839
     2   Atom       -0.037012     -0.130482      0.167495
 --------------------------------------------------------
                        XY            XZ            YZ
 --------------------------------------------------------
     1   Atom       -0.000000      0.000000     -0.000000
     2   Atom        0.000000      0.000000      0.000000
 --------------------------------------------------------


 ---------------------------------------------------------------------------------
              Anisotropic Spin Dipole Couplings in Principal Axis System
 ---------------------------------------------------------------------------------

       Atom             a.u.   MegaHertz   Gauss  10(-4) cm-1        Axes

              Baa    -1.8061   130.686    46.632    43.592  0.0000  1.0000  0.0000
     1 O(17)  Bbb    -1.7498   126.617    45.180    42.235  0.0000  0.0000  1.0000
              Bcc     3.5559  -257.303   -91.812   -85.827  1.0000 -0.0000  0.0000
 
              Baa    -0.1305   -69.619   -24.842   -23.222 -0.0000  1.0000 -0.0000
     2 H(1)   Bbb    -0.0370   -19.748    -7.047    -6.587  1.0000 -0.0000 -0.0000
              Bcc     0.1675    89.367    31.888    29.810  0.0000  0.0000  1.0000
 

 ---------------------------------------------------------------------------------

 Unable to Open any file for archive entry.
 1\1\GINC-HPC-I30-8\FOpt\UM08HX\6-31G(d,p)\H1O1(2)\GDB20\05-Oct-2024\0\
 \#um08hx/6-31g(d,p) OPT FREQ\\created with so and so tool\\0,2\O,-0.21
 81544733,0.6189045411,0.\H,-1.1928455267,0.6050954589,0.\\Version=EM64
 L-G16RevC.01\HF=-75.69011\S2=0.751514\S2-1=0.\S2A=0.750001\RMSD=6.324e
 -09\RMSF=2.338e-08\Dipole=-0.7024731,-0.0099524,0.\Quadrupole=0.691684
 8,-0.7672128,0.075528,0.0206733,-0.0001692,0.011945\PG=C*V [C*(H1O1)]\
 \@
 The archive entry for this job was punched.


 FLOATING POINT NUMBERS ARE LIKE SANDPILES:
 EVERY TIME THAT YOU MOVE ONE, YOU LOSE A LITTLE SAND 
 AND YOU PICK UP A LITTLE DIRT.
 Job cpu time:       0 days  0 hours  0 minutes 15.4 seconds.
 Elapsed time:       0 days  0 hours  0 minutes 15.4 seconds.
 File lengths (MBytes):  RWF=    136 Int=      0 D2E=      0 Chk=     16 Scr=     16
 Normal termination of Gaussian 16 at Sat Oct  5 18:31:22 2024.
 Link1:  Proceeding to internal job step number  2.
 ----------------------------------------------------------------------
 #N Geom=AllCheck Guess=TCheck SCRF=Check GenChk UM08HX/6-31G(d,p) Freq
 ----------------------------------------------------------------------
 1/10=4,29=7,30=1,38=1,40=1/1,3;
 2/12=2,40=1/2;
 3/5=1,6=6,7=101,11=2,14=-4,25=1,30=1,70=2,71=2,74=-74,116=2,140=1/1,2,3;
 4/5=101/1;
 5/5=2,38=6,98=1/2;
 8/6=4,10=90,11=11/1;
 11/6=1,8=1,9=11,15=111,16=1/1,2,10;
 10/6=1/2;
 6/7=2,8=2,9=2,10=2,28=1/1;
 7/8=1,10=1,25=1/1,2,3,16;
 1/10=4,30=1/3;
 99//99;
 Structure from the checkpoint file:  "/gpfs/home/gdb20/code/input_macros/temp/oh_radical_m08-hx_6-31++Gdp/oh_radical_m08-hx_6-31++Gdp.chk"
 ---------------------------
 created with so and so tool
 ---------------------------
 Charge =  0 Multiplicity = 2
 Redundant internal coordinates found in file.  (old form).
 O,0,-0.2181544733,0.6189045411,0.
 H,0,-1.1928455267,0.6050954589,0.
 Recover connectivity data from disk.

 GradGradGradGradGradGradGradGradGradGradGradGradGradGradGradGradGradGrad
 Berny optimization.
 Initialization pass.
                           ----------------------------
                           !    Initial Parameters    !
                           ! (Angstroms and Degrees)  !
 --------------------------                            --------------------------
 ! Name  Definition              Value          Derivative Info.                !
 --------------------------------------------------------------------------------
 ! R1    R(1,2)                  0.9748         calculate D2E/DX2 analytically  !
 --------------------------------------------------------------------------------
 Trust Radius=3.00D-01 FncErr=1.00D-07 GrdErr=1.00D-07 EigMax=2.50D+02 EigMin=1.00D-04
 Number of steps in this run=      2 maximum allowed number of steps=      2.
 GradGradGradGradGradGradGradGradGradGradGradGradGradGradGradGradGradGrad

                          Input orientation:                          
 ---------------------------------------------------------------------
 Center     Atomic      Atomic             Coordinates (Angstroms)
 Number     Number       Type             X           Y           Z
 ---------------------------------------------------------------------
      1          8           0       -0.218154    0.618905    0.000000
      2          1           0       -1.192846    0.605095   -0.000000
 ---------------------------------------------------------------------
 Stoichiometry    HO(2)
 Framework group  C*V[C*(HO)]
 Deg. of freedom     1
 Full point group                 C*V     NOp   4
 Largest Abelian subgroup         C2V     NOp   4
 Largest concise Abelian subgroup C1      NOp   1
                         Standard orientation:                         
 ---------------------------------------------------------------------
 Center     Atomic      Atomic             Coordinates (Angstroms)
 Number     Number       Type             X           Y           Z
 ---------------------------------------------------------------------
      1          8           0        0.000000   -0.000000    0.108310
      2          1           0        0.000000    0.000000   -0.866479
 ---------------------------------------------------------------------
 Rotational constants (GHZ):           0.0000000         560.9806896         560.9806896
 Standard basis: 6-31G(d,p) (6D, 7F)
 There are    11 symmetry adapted cartesian basis functions of A1  symmetry.
 There are     1 symmetry adapted cartesian basis functions of A2  symmetry.
 There are     4 symmetry adapted cartesian basis functions of B1  symmetry.
 There are     4 symmetry adapted cartesian basis functions of B2  symmetry.
 There are    11 symmetry adapted basis functions of A1  symmetry.
 There are     1 symmetry adapted basis functions of A2  symmetry.
 There are     4 symmetry adapted basis functions of B1  symmetry.
 There are     4 symmetry adapted basis functions of B2  symmetry.
    20 basis functions,    35 primitive gaussians,    20 cartesian basis functions
     5 alpha electrons        4 beta electrons
       nuclear repulsion energy         4.3429072891 Hartrees.
 NAtoms=    2 NActive=    2 NUniq=    2 SFac= 1.00D+00 NAtFMM=   60 NAOKFM=F Big=F
 Integral buffers will be    131072 words long.
 Raffenetti 2 integral format.
 Two-electron integral symmetry is turned on.
 One-electron integrals computed using PRISM.
 NBasis=    20 RedAO= T EigKep=  3.05D-02  NBF=    11     1     4     4
 NBsUse=    20 1.00D-06 EigRej= -1.00D+00 NBFU=    11     1     4     4
 Initial guess from the checkpoint file:  "/gpfs/home/gdb20/code/input_macros/temp/oh_radical_m08-hx_6-31++Gdp/oh_radical_m08-hx_6-31++Gdp.chk"
 B after Tr=     0.000000   -0.000000    0.000000
         Rot=    1.000000    0.000000    0.000000    0.000000 Ang=   0.00 deg.
 Initial guess orbital symmetries:
 Alpha Orbitals:
       Occupied  (SG) (SG) (SG) (PI) (PI)
       Virtual   (SG) (SG) (PI) (SG) (PI) (SG) (PI) (PI) (?A) (?A)
                 (?A) (PI) (PI) (SG) (SG)
 Beta  Orbitals:
       Occupied  (SG) (SG) (SG) (?A)
       Virtual   (?A) (SG) (SG) (SG) (?A) (?A) (SG) (PI) (PI) (DLTA)
                 (DLTA) (SG) (PI) (PI) (SG) (SG)
 Initial guess <Sx>= 0.0000 <Sy>= 0.0000 <Sz>= 0.5000 <S**2>= 0.7515 S= 0.5008
 Keep R1 and R2 ints in memory in symmetry-blocked form, NReq=887456.
 Requested convergence on RMS density matrix=1.00D-08 within 128 cycles.
 Requested convergence on MAX density matrix=1.00D-06.
 Requested convergence on             energy=1.00D-06.
 No special actions if energy rises.
 SCF Done:  E(UM08HX) =  -75.6901099758     A.U. after    1 cycles
            NFock=  1  Conv=0.37D-09     -V/T= 2.0083
 <Sx>= 0.0000 <Sy>= 0.0000 <Sz>= 0.5000 <S**2>= 0.7515 S= 0.5008
 <L.S>= 0.000000000000E+00
 Annihilation of the first spin contaminant:
 S**2 before annihilation     0.7515,   after     0.7500
 DoSCS=F DFT=T ScalE2(SS,OS)=  1.000000  1.000000
 Range of M.O.s used for correlation:     1    20
 NBasis=    20 NAE=     5 NBE=     4 NFC=     0 NFV=     0
 NROrb=     20 NOA=     5 NOB=     4 NVA=    15 NVB=    16
 Symmetrizing basis deriv contribution to polar:
 IMax=3 JMax=2 DiffMx= 0.00D+00
 G2DrvN: will do     3 centers at a time, making    1 passes.
 Calling FoFCou, ICntrl=  3107 FMM=F I1Cent=   0 AccDes= 0.00D+00.
 End of G2Drv F.D. properties file   721 does not exist.
 End of G2Drv F.D. properties file   722 does not exist.
 End of G2Drv F.D. properties file   788 does not exist.
          IDoAtm=11
          Differentiating once with respect to electric field.
                with respect to dipole field.
          Differentiating once with respect to nuclear coordinates.
 Keep R1 and R2 ints in memory in symmetry-blocked form, NReq=886040.
          There are     9 degrees of freedom in the 1st order CPHF.  IDoFFX=6 NUNeed=     3.
      6 vectors produced by pass  0 Test12= 1.54D-15 1.11D-08 XBig12= 4.02D+00 1.33D+00.
 AX will form     6 AO Fock derivatives at one time.
      6 vectors produced by pass  1 Test12= 1.54D-15 1.11D-08 XBig12= 2.58D-01 2.15D-01.
      6 vectors produced by pass  2 Test12= 1.54D-15 1.11D-08 XBig12= 3.55D-03 2.11D-02.
      6 vectors produced by pass  3 Test12= 1.54D-15 1.11D-08 XBig12= 3.79D-05 2.55D-03.
      6 vectors produced by pass  4 Test12= 1.54D-15 1.11D-08 XBig12= 9.43D-07 4.58D-04.
      6 vectors produced by pass  5 Test12= 1.54D-15 1.11D-08 XBig12= 5.74D-09 3.33D-05.
      4 vectors produced by pass  6 Test12= 1.54D-15 1.11D-08 XBig12= 4.11D-11 3.21D-06.
      1 vectors produced by pass  7 Test12= 1.54D-15 1.11D-08 XBig12= 2.04D-13 2.10D-07.
 InvSVY:  IOpt=1 It=  1 EMax= 2.22D-16
 Solved reduced A of dimension    41 with     6 vectors.
 Isotropic polarizability for W=    0.000000        3.86 Bohr**3.
 End of Minotr F.D. properties file   721 does not exist.
 End of Minotr F.D. properties file   722 does not exist.
 End of Minotr F.D. properties file   788 does not exist.

 **********************************************************************

            Population analysis using the SCF Density.

 **********************************************************************

 Orbital symmetries:
 Alpha Orbitals:
       Occupied  (SG) (SG) (SG) (PI) (PI)
       Virtual   (SG) (SG) (PI) (SG) (PI) (SG) (PI) (PI) (?A) (?A)
                 (?A) (PI) (PI) (SG) (SG)
 Beta  Orbitals:
       Occupied  (SG) (SG) (SG) (?A)
       Virtual   (?A) (SG) (SG) (SG) (?A) (?A) (SG) (PI) (PI) (DLTA)
                 (DLTA) (SG) (PI) (PI) (SG) (SG)
 Unable to determine electronic state:  an orbital has unidentified symmetry.
 Alpha  occ. eigenvalues --  -19.69102  -1.12383  -0.54733  -0.48215  -0.42082
 Alpha virt. eigenvalues --    0.10702   0.80131   0.88932   0.90450   0.94542
 Alpha virt. eigenvalues --    1.11645   1.57699   1.61490   1.80962   1.81542
 Alpha virt. eigenvalues --    2.36268   2.63649   2.67061   3.34706   3.51289
  Beta  occ. eigenvalues --  -19.65983  -1.05132  -0.51755  -0.39025
  Beta virt. eigenvalues --   -0.07563   0.11428   0.81042   0.91212   0.95421
  Beta virt. eigenvalues --    1.01312   1.13432   1.62033   1.62771   1.88635
  Beta virt. eigenvalues --    1.90326   2.39700   2.66482   2.66692   3.37360
  Beta virt. eigenvalues --    3.53371
          Condensed to atoms (all electrons):
               1          2
     1  O    8.100461   0.245825
     2  H    0.245825   0.407890
          Atomic-Atomic Spin Densities.
               1          2
     1  O    1.023972   0.003400
     2  H    0.003400  -0.030772
 Mulliken charges and spin densities:
               1          2
     1  O   -0.346285   1.027372
     2  H    0.346285  -0.027372
 Sum of Mulliken charges =  -0.00000   1.00000
 Mulliken charges and spin densities with hydrogens summed into heavy atoms:
               1          2
     1  O   -0.000000   1.000000
 APT charges:
               1
     1  O   -0.281818
     2  H    0.281818
 Sum of APT charges =   0.00000
 APT charges with hydrogens summed into heavy atoms:
               1
     1  O    0.000000
 Electronic spatial extent (au):  <R**2>=             15.0542
 Charge=              0.0000 electrons
 Dipole moment (field-independent basis, Debye):
    X=              0.0000    Y=             -0.0000    Z=             -1.7857  Tot=              1.7857
 Quadrupole moment (field-independent basis, Debye-Ang):
   XX=             -5.2953   YY=             -6.4297   ZZ=             -4.4664
   XY=              0.0000   XZ=             -0.0000   YZ=              0.0000
 Traceless Quadrupole moment (field-independent basis, Debye-Ang):
   XX=              0.1018   YY=             -1.0325   ZZ=              0.9307
   XY=              0.0000   XZ=             -0.0000   YZ=              0.0000
 Octapole moment (field-independent basis, Debye-Ang**2):
  XXX=              0.0000  YYY=             -0.0000  ZZZ=             -1.9056  XYY=              0.0000
  XXY=             -0.0000  XXZ=             -0.1731  XZZ=              0.0000  YZZ=             -0.0000
  YYZ=             -0.2761  XYZ=              0.0000
 Hexadecapole moment (field-independent basis, Debye-Ang**3):
 XXXX=             -3.3514 YYYY=             -4.6085 ZZZZ=             -5.0596 XXXY=              0.0000
 XXXZ=              0.0000 YYYX=              0.0000 YYYZ=             -0.0000 ZZZX=             -0.0000
 ZZZY=              0.0000 XXYY=             -1.3266 XXZZ=             -1.6328 YYZZ=             -1.8568
 XXYZ=             -0.0000 YYXZ=              0.0000 ZZXY=              0.0000
 N-N= 4.342907289105D+00 E-N=-1.876887069016D+02  KE= 7.506897411660D+01
 Symmetry A1   KE= 6.783111723738D+01
 Symmetry A2   KE= 8.708361370672D-35
 Symmetry B1   KE= 2.491343999708D+00
 Symmetry B2   KE= 4.746512879521D+00
 Symmetry A1   SP=-4.402945022464D-16
 Symmetry A2   SP= 5.010787536895D-36
 Symmetry B1   SP= 1.000000000000D+00
 Symmetry B2   SP=-3.997453409954D-16
  Exact polarizability:       2.899       0.000       2.553      -0.000      -0.000       6.143
 Approx polarizability:       2.916      -0.000       2.453      -0.000       0.000       6.501
                          Isotropic Fermi Contact Couplings
        Atom                 a.u.       MegaHertz       Gauss      10(-4) cm-1
     1  O(17)              0.05330     -32.31159     -11.52958     -10.77799
     2  H(1)              -0.01370     -61.22940     -21.84817     -20.42393
 --------------------------------------------------------
       Center         ----  Spin Dipole Couplings  ----
                      3XX-RR        3YY-RR        3ZZ-RR
 --------------------------------------------------------
     1   Atom        3.555912     -1.806073     -1.749839
     2   Atom       -0.037012     -0.130482      0.167495
 --------------------------------------------------------
                        XY            XZ            YZ
 --------------------------------------------------------
     1   Atom       -0.000000      0.000000     -0.000000
     2   Atom       -0.000000      0.000000      0.000000
 --------------------------------------------------------


 ---------------------------------------------------------------------------------
              Anisotropic Spin Dipole Couplings in Principal Axis System
 ---------------------------------------------------------------------------------

       Atom             a.u.   MegaHertz   Gauss  10(-4) cm-1        Axes

              Baa    -1.8061   130.686    46.632    43.592  0.0000  1.0000  0.0000
     1 O(17)  Bbb    -1.7498   126.617    45.180    42.235  0.0000  0.0000  1.0000
              Bcc     3.5559  -257.303   -91.812   -85.827  1.0000 -0.0000  0.0000
 
              Baa    -0.1305   -69.619   -24.842   -23.222  0.0000  1.0000 -0.0000
     2 H(1)   Bbb    -0.0370   -19.748    -7.047    -6.587  1.0000 -0.0000 -0.0000
              Bcc     0.1675    89.367    31.888    29.810  0.0000  0.0000  1.0000
 

 ---------------------------------------------------------------------------------

 Calling FoFJK, ICntrl=    100127 FMM=F ISym2X=1 I1Cent= 0 IOpClX= 1 NMat=1 NMatS=1 NMatT=0.
 Full mass-weighted force constant matrix:
 Low frequencies ---   -0.0018   -0.0013    0.0010  122.2634  201.1970 3792.9845
 Diagonal vibrational polarizability:
        0.0000000       0.0000000       0.0132675
 Harmonic frequencies (cm**-1), IR intensities (KM/Mole), Raman scattering
 activities (A**4/AMU), depolarization ratios for plane and unpolarized
 incident light, reduced masses (AMU), force constants (mDyne/A),
 and normal coordinates:
                      1
                     SG
 Frequencies --   3792.9845
 Red. masses --      1.0671
 Frc consts  --      9.0451
 IR Inten    --      7.0928
  Atom  AN      X      Y      Z
     1   8     0.00  -0.00  -0.06
     2   1    -0.00   0.00   1.00

 -------------------
 - Thermochemistry -
 -------------------
 Temperature   298.150 Kelvin.  Pressure   1.00000 Atm.
 Atom     1 has atomic number  8 and mass  15.99491
 Atom     2 has atomic number  1 and mass   1.00783
 Molecular mass:    17.00274 amu.
 Principal axes and moments of inertia in atomic units:
                           1         2         3
     Eigenvalues --     0.00000   3.21712   3.21712
           X           -0.00000   0.99990  -0.01440
           Y            0.00000   0.01440   0.99990
           Z            1.00000   0.00000  -0.00000
 This molecule is a prolate symmetric top.
 Rotational symmetry number  1.
 Rotational temperature (Kelvin)     26.92283
 Rotational constant (GHZ):         560.980690
 Zero-point vibrational energy      22687.1 (Joules/Mol)
                                    5.42234 (Kcal/Mol)
 Vibrational temperatures:   5457.26
          (Kelvin)
 
 Zero-point correction=                           0.008641 (Hartree/Particle)
 Thermal correction to Energy=                    0.011002
 Thermal correction to Enthalpy=                  0.011946
 Thermal correction to Gibbs Free Energy=        -0.008285
 Sum of electronic and zero-point Energies=            -75.681469
 Sum of electronic and thermal Energies=               -75.679108
 Sum of electronic and thermal Enthalpies=             -75.678164
 Sum of electronic and thermal Free Energies=          -75.698395
 
                     E (Thermal)             CV                S
                      KCal/Mol        Cal/Mol-Kelvin    Cal/Mol-Kelvin
 Total                    6.904              4.968             42.580
 Electronic               0.000              0.000              1.377
 Translational            0.889              2.981             34.437
 Rotational               0.592              1.987              6.766
 Vibrational              5.422              0.000              0.000
                       Q            Log10(Q)             Ln(Q)
 Total Bot       0.647099D+04          3.810971          8.775084
 Total V=0       0.610346D+08          7.785576         17.926952
 Vib (Bot)       0.106022D-03         -3.974606         -9.151868
 Vib (V=0)       0.100000D+01          0.000000          0.000000
 Electronic      0.200000D+01          0.301030          0.693147
 Translational   0.275570D+07          6.440232         14.829183
 Rotational      0.110742D+02          1.044314          2.404622
 ***** Axes restored to original set *****
 -------------------------------------------------------------------
 Center     Atomic                   Forces (Hartrees/Bohr)
 Number     Number              X              Y              Z
 -------------------------------------------------------------------
      1        8          -0.000000042   -0.000000001   -0.000000000
      2        1           0.000000042    0.000000001    0.000000000
 -------------------------------------------------------------------
 Cartesian Forces:  Max     0.000000042 RMS     0.000000024
 FormGI is forming the generalized inverse of G from B-inverse, IUseBI=4.

 GradGradGradGradGradGradGradGradGradGradGradGradGradGradGradGradGradGrad
 Berny optimization.
 Internal  Forces:  Max     0.000000042 RMS     0.000000042
 Search for a local minimum.
 Step number   1 out of a maximum of    2
 All quantities printed in internal units (Hartrees-Bohrs-Radians)
 Second derivative matrix not updated -- analytic derivatives used.
 The second derivative matrix:
                          R1
           R1           0.51618
 ITU=  0
     Eigenvalues ---    0.51618
 Angle between quadratic step and forces=  90.00 degrees.
 Linear search not attempted -- first point.
 Iteration  1 RMS(Cart)=  0.00000006 RMS(Int)=  0.00000000
 ClnCor:  largest displacement from symmetrization is 9.88D-21 for atom     2.
 Variable       Old X    -DE/DX   Delta X   Delta X   Delta X     New X
                                 (Linear)    (Quad)   (Total)
    R1        1.84208  -0.00000   0.00000  -0.00000  -0.00000   1.84208
         Item               Value     Threshold  Converged?
 Maximum Force            0.000000     0.000450     YES
 RMS     Force            0.000000     0.000300     YES
 Maximum Displacement     0.000000     0.001800     YES
 RMS     Displacement     0.000000     0.001200     YES
 Predicted change in Energy=-1.673474D-15
 Optimization completed.
    -- Stationary point found.
                           ----------------------------
                           !   Optimized Parameters   !
                           ! (Angstroms and Degrees)  !
 --------------------------                            --------------------------
 ! Name  Definition              Value          Derivative Info.                !
 --------------------------------------------------------------------------------
 ! R1    R(1,2)                  0.9748         -DE/DX =    0.0                 !
 --------------------------------------------------------------------------------
 GradGradGradGradGradGradGradGradGradGradGradGradGradGradGradGradGradGrad


 ----------------------------------------------------------------------

 Electric dipole moment (input orientation):
 (Debye = 10**-18 statcoulomb cm , SI units = C m)
                  (au)            (Debye)         (10**-30 SI)
   Tot        0.702544D+00      0.178569D+01      0.595641D+01
   x         -0.702473D+00     -0.178551D+01     -0.595582D+01
   y         -0.995239D-02     -0.252965D-01     -0.843799D-01
   z          0.000000D+00      0.000000D+00      0.000000D+00

 Dipole polarizability, Alpha (input orientation).
 (esu units = cm**3 , SI units = C**2 m**2 J**-1)
 Alpha(0;0):
               (au)            (10**-24 esu)      (10**-40 SI)
   iso        0.386474D+01      0.572696D+00      0.637210D+00
   aniso      0.343015D+01      0.508296D+00      0.565555D+00
   xx         0.614203D+01      0.910155D+00      0.101268D+01
   yx         0.508532D-01      0.753566D-02      0.838455D-02
   yy         0.255336D+01      0.378370D+00      0.420993D+00
   zx        -0.694950D-04     -0.102981D-04     -0.114582D-04
   zy         0.490519D-02      0.726874D-03      0.808756D-03
   zz         0.289883D+01      0.429563D+00      0.477953D+00

 ----------------------------------------------------------------------

 Dipole orientation:
     8         -0.01664932          1.17516484          0.39564258
     1         -0.01664932          1.17516484          2.23772658

 Electric dipole moment (dipole orientation):
 (Debye = 10**-18 statcoulomb cm , SI units = C m)
                  (au)            (Debye)         (10**-30 SI)
   Tot        0.702544D+00      0.178569D+01      0.595641D+01
   x          0.000000D+00      0.000000D+00      0.000000D+00
   y          0.000000D+00      0.000000D+00      0.000000D+00
   z          0.702544D+00      0.178569D+01      0.595641D+01

 Dipole polarizability, Alpha (dipole orientation).
 (esu units = cm**3 , SI units = C**2 m**2 J**-1)
 Alpha(0;0):
               (au)            (10**-24 esu)      (10**-40 SI)
   iso        0.386474D+01      0.572696D+00      0.637210D+00
   aniso      0.343015D+01      0.508296D+00      0.565555D+00
   xx         0.289863D+01      0.429532D+00      0.477919D+00
   yx         0.980742D-02      0.145331D-02      0.161703D-02
   yy         0.255285D+01      0.378294D+00      0.420909D+00
   zx         0.000000D+00      0.000000D+00      0.000000D+00
   zy         0.000000D+00      0.000000D+00      0.000000D+00
   zz         0.614275D+01      0.910262D+00      0.101280D+01

 ----------------------------------------------------------------------
 Unable to Open any file for archive entry.
 1\1\GINC-HPC-I30-8\Freq\UM08HX\6-31G(d,p)\H1O1(2)\GDB20\05-Oct-2024\0\
 \#N Geom=AllCheck Guess=TCheck SCRF=Check GenChk UM08HX/6-31G(d,p) Fre
 q\\created with so and so tool\\0,2\O,-0.2181544733,0.6189045411,0.\H,
 -1.1928455267,0.6050954589,0.\\Version=EM64L-G16RevC.01\HF=-75.69011\S
 2=0.751514\S2-1=0.\S2A=0.750001\RMSD=3.676e-10\RMSF=2.400e-08\ZeroPoin
 t=0.0086411\Thermal=0.0110015\ETot=-75.6791085\HTot=-75.6781643\GTot=-
 75.6983953\Dipole=-0.7024731,-0.0099524,0.\DipoleDeriv=-0.0831132,0.00
 42256,0.,0.0042256,-0.3813074,0.0000047,0.,0.0000047,-0.3810322,0.0831
 132,-0.0042256,0.,-0.0042256,0.3813074,-0.0000047,0.,-0.0000047,0.3810
 322\Polar=6.1420295,0.0508532,2.5533644,-0.0000695,0.0049052,2.8988337
 \Quadrupole=0.6916848,-0.7672128,0.075528,0.0206733,-0.0001692,0.01194
 5\PG=C*V [C*(H1O1)]\NImag=0\\0.51607739,0.00729103,0.00155550,0.000000
 18,-0.00001297,0.00053651,-0.51607739,-0.00729103,-0.00000018,0.516077
 39,-0.00729103,-0.00155550,0.00001297,0.00729103,0.00155550,-0.0000001
 8,0.00001297,-0.00053651,0.00000018,-0.00001297,0.00053651\\0.00000004
 ,0.,0.,-0.00000004,0.,0.\\\@
 The archive entry for this job was punched.


 WE MIGHT AS WELL ATTEMPT TO INTRODUCE A NEW PLANET 
 INTO THE SOLAR SYSTEM, OR TO ANNIHILATE ONE ALREADYIN EXISTENCE, 
 AS TO CREATE OR DESTROY A PARTICLE OF HYDROGEN.
 ALL THE CHANGES WE CAN PRODUCE CONSIST IN SEPARATING PARTICLES
 THAT ARE IN A STATE OF ... COMBINATION, AND JOINING 
 THOSE THAT WERE PREVIOUSLY AT A DISTANCE.

                                    -- JOHN DALTON, 1810
 Job cpu time:       0 days  0 hours  0 minutes  7.7 seconds.
 Elapsed time:       0 days  0 hours  0 minutes  7.6 seconds.
 File lengths (MBytes):  RWF=    136 Int=      0 D2E=      0 Chk=     16 Scr=     16
 Normal termination of Gaussian 16 at Sat Oct  5 18:31:30 2024.
