
                                 *****************
                                 * O   R   C   A *
                                 *****************

                                            #,                                       
                                            ###                                      
                                            ####                                     
                                            #####                                    
                                            ######                                   
                                           ########,                                 
                                     ,,################,,,,,                         
                               ,,#################################,,                 
                          ,,##########################################,,             
                       ,#########################################, ''#####,          
                    ,#############################################,,   '####,        
                  ,##################################################,,,,####,       
                ,###########''''           ''''###############################       
              ,#####''   ,,,,##########,,,,          '''####'''          '####       
            ,##' ,,,,###########################,,,                        '##       
           ' ,,###''''                  '''############,,,                           
         ,,##''                                '''############,,,,        ,,,,,,###''
      ,#''                                            '''#######################'''  
     '                                                          ''''####''''         
             ,#######,   #######,   ,#######,      ##                                
            ,#'     '#,  ##    ##  ,#'     '#,    #''#        ######   ,####,        
            ##       ##  ##   ,#'  ##            #'  '#       #        #'  '#        
            ##       ##  #######   ##           ,######,      #####,   #    #        
            '#,     ,#'  ##    ##  '#,     ,#' ,#      #,         ##   #,  ,#        
             '#######'   ##     ##  '#######'  #'      '#     #####' # '####'        



                  #######################################################
                  #                        -***-                        #
                  #          Department of theory and spectroscopy      #
                  #    Directorship and core code : Frank Neese         #
                  #        Max Planck Institute fuer Kohlenforschung    #
                  #                Kaiser Wilhelm Platz 1               #
                  #                 D-45470 Muelheim/Ruhr               #
                  #                      Germany                        #
                  #                                                     #
                  #                  All rights reserved                #
                  #                        -***-                        #
                  #######################################################


                         Program Version 5.0.1 -  RELEASE  -


 With contributions from (in alphabetic order):
   Daniel Aravena         : Magnetic Suceptibility
   Michael Atanasov       : Ab Initio Ligand Field Theory (pilot matlab implementation)
   Alexander A. Auer      : GIAO ZORA, VPT2 properties, NMR spectrum
   Ute Becker             : Parallelization
   Giovanni Bistoni       : ED, misc. LED, open-shell LED, HFLD
   Martin Brehm           : Molecular dynamics
   Dmytro Bykov           : SCF Hessian
   Vijay G. Chilkuri      : MRCI spin determinant printing, contributions to CSF-ICE
   Dipayan Datta          : RHF DLPNO-CCSD density
   Achintya Kumar Dutta   : EOM-CC, STEOM-CC
   Dmitry Ganyushin       : Spin-Orbit,Spin-Spin,Magnetic field MRCI
   Miquel Garcia          : C-PCM and meta-GGA Hessian, CC/C-PCM, Gaussian charge scheme
   Yang Guo               : DLPNO-NEVPT2, F12-NEVPT2, CIM, IAO-localization
   Andreas Hansen         : Spin unrestricted coupled pair/coupled cluster methods
   Benjamin Helmich-Paris : MC-RPA, TRAH-SCF, COSX integrals
   Lee Huntington         : MR-EOM, pCC
   Robert Izsak           : Overlap fitted RIJCOSX, COSX-SCS-MP3, EOM
   Marcus Kettner         : VPT2
   Christian Kollmar      : KDIIS, OOCD, Brueckner-CCSD(T), CCSD density, CASPT2, CASPT2-K
   Simone Kossmann        : Meta GGA functionals, TD-DFT gradient, OOMP2, MP2 Hessian
   Martin Krupicka        : Initial AUTO-CI
   Lucas Lang             : DCDCAS
   Marvin Lechner         : AUTO-CI (C++ implementation), FIC-MRCC
   Dagmar Lenk            : GEPOL surface, SMD
   Dimitrios Liakos       : Extrapolation schemes; Compound Job, initial MDCI parallelization
   Dimitrios Manganas     : Further ROCIS development; embedding schemes
   Dimitrios Pantazis     : SARC Basis sets
   Anastasios Papadopoulos: AUTO-CI, single reference methods and gradients
   Taras Petrenko         : DFT Hessian,TD-DFT gradient, ASA, ECA, R-Raman, ABS, FL, XAS/XES, NRVS
   Peter Pinski           : DLPNO-MP2, DLPNO-MP2 Gradient
   Christoph Reimann      : Effective Core Potentials
   Marius Retegan         : Local ZFS, SOC
   Christoph Riplinger    : Optimizer, TS searches, QM/MM, DLPNO-CCSD(T), (RO)-DLPNO pert. Triples
   Tobias Risthaus        : Range-separated hybrids, TD-DFT gradient, RPA, STAB
   Michael Roemelt        : Original ROCIS implementation
   Masaaki Saitow         : Open-shell DLPNO-CCSD energy and density
   Barbara Sandhoefer     : DKH picture change effects
   Avijit Sen             : IP-ROCIS
   Kantharuban Sivalingam : CASSCF convergence, NEVPT2, FIC-MRCI
   Bernardo de Souza      : ESD, SOC TD-DFT
   Georgi Stoychev        : AutoAux, RI-MP2 NMR, DLPNO-MP2 response
   Willem Van den Heuvel  : Paramagnetic NMR
   Boris Wezisla          : Elementary symmetry handling
   Frank Wennmohs         : Technical directorship


 We gratefully acknowledge several colleagues who have allowed us to
 interface, adapt or use parts of their codes:
   Stefan Grimme, W. Hujo, H. Kruse, P. Pracht,  : VdW corrections, initial TS optimization,
                  C. Bannwarth, S. Ehlert          DFT functionals, gCP, sTDA/sTD-DF
   Ed Valeev, F. Pavosevic, A. Kumar             : LibInt (2-el integral package), F12 methods
   Garnet Chan, S. Sharma, J. Yang, R. Olivares  : DMRG
   Ulf Ekstrom                                   : XCFun DFT Library
   Mihaly Kallay                                 : mrcc  (arbitrary order and MRCC methods)
   Jiri Pittner, Ondrej Demel                    : Mk-CCSD
   Frank Weinhold                                : gennbo (NPA and NBO analysis)
   Christopher J. Cramer and Donald G. Truhlar   : smd solvation model
   Lars Goerigk                                  : TD-DFT with DH, B97 family of functionals
   V. Asgeirsson, H. Jonsson                     : NEB implementation
   FAccTs GmbH                                   : IRC, NEB, NEB-TS, DLPNO-Multilevel, CI-OPT
                                                   MM, QMMM, 2- and 3-layer-ONIOM, Crystal-QMMM,
                                                   LR-CPCM, SF, NACMEs, symmetry and pop. for TD-DFT,
                                                   nearIR, NL-DFT gradient (VV10), updates on ESD,
                                                   ML-optimized integration grids
   S Lehtola, MJT Oliveira, MAL Marques          : LibXC Library
   Liviu Ungur et al                             : ANISO software


 Your calculation uses the libint2 library for the computation of 2-el integrals
 For citations please refer to: http://libint.valeyev.net

 Your ORCA version has been built with support for libXC version: 5.1.0
 For citations please refer to: https://tddft.org/programs/libxc/

 This ORCA versions uses:
   CBLAS   interface :  Fast vector & matrix operations
   LAPACKE interface :  Fast linear algebra routines
   SCALAPACK package :  Parallel linear algebra routines
   Shared memory     :  Shared parallel matrices
   BLAS/LAPACK       :  OpenBLAS 0.3.15  USE64BITINT DYNAMIC_ARCH NO_AFFINITY Barcelona SINGLE_THREADED
        Core in use  :  Barcelona
   Copyright (c) 2011-2014, The OpenBLAS Project


================================================================================

----- Orbital basis set information -----
Your calculation utilizes the basis: 6-31G(d,p)
   H-He, Li-Ne : W. J. Hehre, R. Ditchfield and J.A. Pople, J. Chem. Phys. 56, 2257 (1972).
                 Note: He and Ne are unpublished basis sets taken from the Gaussian program.
                 Note: Li and B from J. D. Dill and J. A. Pople, J. Chem. Phys. 62, 2921 (1975).
   Na - Ar     : M. M. Francl, W. J. Pietro, W. J. Hehre, J. S. Binkley, M. S. Gordon, 
                 D. J. DeFrees and J. A. Pople, J. Chem. Phys. 77, 3654 (1982).
   K - Zn      : V. A. Rassolov, J. A. Pople, M. A. Ratner, and T. L. Windus, J. Chem. Phys. 109, 1223 (1998).

----- AuxJ basis set information -----
Your calculation utilizes the auxiliary basis: def2/J
   F. Weigend, Phys. Chem. Chem. Phys. 8, 1057 (2006).

================================================================================
                                        WARNINGS
                       Please study these warnings very carefully!
================================================================================


WARNING: Geometry Optimization
  ===> : Switching off AutoStart
         For restart on a previous wavefunction, please use MOREAD

INFO   : the flag for use of the SHARK integral package has been found!

================================================================================
                                       INPUT FILE
================================================================================
NAME = diradical_alkyne_b3lyp_631gdp_opt_freq_normal_singlet.inp
|  1> !B3LYP 6-31G(d,p) OPT FREQ
|  2> %maxcore 4000
|  3> %pal
|  4>  nprocs 8
|  5> end
|  6> * XYZ 0  1
|  7>  C         -1.9221449931        0.6485312950        0.1554654770
|  8>  C         -5.4554659228       -0.4267997571        0.9037545022
|  9>  C         -6.7497086516        0.1520390894        0.8066194450
| 10>  C         -6.9050049863        1.4711609130        0.3703562045
| 11>  C         -7.8660897695       -0.6360003062        1.1635180569
| 12>  H         -8.8516697565       -0.2008208703        1.0746867464
| 13>  C         -7.7162141156       -1.9154427764        1.6133117756
| 14>  H         -8.5957487729       -2.4860037043        1.8709468992
| 15>  C         -6.4404153746       -2.4931074374        1.7511557616
| 16>  C         -6.3286515813       -3.9137091055        2.2798581633
| 17>  C         -5.3457289993       -1.7372689108        1.3856095473
| 18>  H         -4.3614981360       -2.1611753747        1.4811490162
| 19>  H          0.8475969904        5.5021039491        0.2657811581
| 20>  C         -2.0918654021        1.9759360640       -0.2442314644
| 21>  C         -3.4003470925        2.5111869174       -0.2942648488
| 22>  C         -3.6357094823        3.8208004666       -0.7503860268
| 23>  C         -4.5019266968        1.6994985562        0.0869058399
| 24>  C         -5.8082767781        2.2612252912        0.0173208230
| 25>  C         -4.3113101270        0.3616656295        0.5115514883
| 26>  C         -0.6196356259        0.1085853221        0.2201763737
| 27>  C         -3.0094168486       -0.1407159305        0.5233099797
| 28>  H         -2.8021791360       -1.1566621357        0.8195346492
| 29>  H         -7.8999895216        1.8891997500        0.3071493351
| 30>  H         -6.9866040697        3.9712300732       -0.4411591607
| 31>  C         -4.9071687325        4.3759444970       -0.8052234908
| 32>  C         -5.9782219212        3.5913044495       -0.4148813763
| 33>  H         -2.7818688863        4.3945586014       -1.0741203101
| 34>  C         -5.0642068159        5.8074381761       -1.2962689703
| 35>  H          5.7762884068        5.1654897729        0.5629750142
| 36>  C         -4.5517708700        5.8970291562       -2.7404071075
| 37>  H         -3.5012749157        5.6266083775       -2.8053774783
| 38>  C         -6.5191083851        6.2829732233       -1.2733048562
| 39>  H         -5.1168633604        5.2240176714       -3.3822239362
| 40>  H         -4.6670394061        6.9113515036       -3.1170648017
| 41>  C         -4.2417858197        6.7382638566       -0.3941382645
| 42>  H         -7.1403236869        5.6746195215       -1.9266855242
| 43>  H         -6.9246904711        6.2523317565       -0.2645061541
| 44>  H         -6.5700740251        7.3116390686       -1.6249328222
| 45>  H         -3.1843609074        6.4906232549       -0.4282558373
| 46>  H         -4.3596082412        7.7713283727       -0.7149509752
| 47>  H         -4.5792665570        6.6568165758        0.6373066923
| 48>  H         -1.1656117502        4.2850834916        0.8560618952
| 49>  C          1.4519904041        4.1546602738       -1.2968029976
| 50>  C          1.0851988594        2.9852534091       -1.9597141681
| 51>  H          1.7044907588        2.5962826948       -2.7539114822
| 52>  C         -0.0614754569        2.2957566790       -1.6282098070
| 53>  H         -0.3212018096        1.3960538530       -2.1666592554
| 54>  C         -0.8998102585        2.7533539622       -0.6145915744
| 55>  C          0.6125016609        4.6050651525       -0.2849044669
| 56>  C         -0.5428611338        3.9201795503        0.0507860247
| 57>  C          2.7239509701        4.8771389403       -1.7120276642
| 58>  C          3.9190572465        3.9253363859       -1.5583222696
| 59>  H          4.0158628292        3.5914640670       -0.5276326423
| 60>  C          2.5916413924        5.3046544623       -3.1813931894
| 61>  H          3.8089584438        3.0439695422       -2.1837785570
| 62>  H          4.8400648030        4.4293605789       -1.8453910572
| 63>  C          2.9919054154        6.1327305659       -0.8774800931
| 64>  H          2.4601691674        4.4452921239       -3.8329133729
| 65>  H          1.7334023700        5.9619744282       -3.3067297964
| 66>  H          3.4849510836        5.8391801693       -3.4980080271
| 67>  H          3.0985920348        5.8918815022        0.1773441686
| 68>  H          3.9171582205        6.5994060578       -1.2102973333
| 69>  H          2.1900581079        6.8582328448       -0.9954428981
| 70>  C         -4.8788167554       -4.3660020471        2.4720419261
| 71>  H         -4.3501084543       -4.3872482824        1.5223545044
| 72>  C         -6.9990934802       -4.8639903905        1.2769426856
| 73>  H         -4.3516557944       -3.7118906393        3.1633977134
| 74>  H         -4.8642197561       -5.3737835147        2.8830508045
| 75>  C         -7.0340318497       -4.0081232591        3.6405763625
| 76>  H         -6.5066880828       -4.7952490193        0.3090041712
| 77>  H         -6.9299875938       -5.8913698646        1.6287473796
| 78>  H         -8.0490702218       -4.6183191918        1.1426183426
| 79>  H         -6.5878490905       -3.3079062444        4.3439720535
| 80>  H         -8.0932774283       -3.7818938847        3.5601402451
| 81>  H         -6.9336657537       -5.0137597658        4.0439459178
| 82>  H          6.1913174096        3.4151021362        4.4697651165
| 83>  H          7.5977574426        4.1139257068        3.6704243108
| 84>  H          6.3275691577        5.1663772105        4.2853491218
| 85>  C          1.8311118547       -0.8058504293        0.2899756609
| 86>  C          5.2490458970        0.6336011163        0.9484677030
| 87>  C          6.5943526776        0.2119849276        0.7725715859
| 88>  C          6.8763043160       -1.0819480857        0.3236720732
| 89>  C          7.6273286363        1.1216864454        1.0895821791
| 90>  H          8.6511833542        0.8124400781        0.9322917433
| 91>  C          7.3516633188        2.3578470011        1.5980178596
| 92>  H          8.1702095062        3.0225767680        1.8299031110
| 93>  C          6.0269255868        2.7672190885        1.8394830133
| 94>  C          5.7766597441        4.1291227129        2.4657466373
| 95>  C          5.0103292149        1.8995226954        1.4972843332
| 96>  H          3.9893221556        2.1892993097        1.6757720299
| 97>  H         -1.9506116222       -4.0836451834        0.7370905769
| 98>  C          2.1258336845       -2.1195541600       -0.0809573154
| 99>  C          3.4813193917       -2.5242440427       -0.1363105806
|100>  C          3.8389201446       -3.8441654252       -0.4652636915
|101>  C          4.5033392442       -1.5877575333        0.1731963519
|102>  C          5.8600419173       -2.0024334665        0.0535789842
|103>  C          4.1851573699       -0.2712259849        0.5859009359
|104>  C          0.4985179550       -0.3416373227        0.2756994986
|105>  C          2.8404360592        0.0976295019        0.6171670734
|106>  H          2.5397336683        1.1024275697        0.8693874728
|107>  H          7.9077663994       -1.3839738424        0.2068539364
|108>  H          7.1981233409       -3.5849822854       -0.4250461823
|109>  C          5.1610211192       -4.2539346281       -0.5790292417
|110>  C          6.1562240264       -3.3229319123       -0.3377438997
|111>  H          3.0400397884       -4.5506682493       -0.6255764478
|112>  C          5.4530077034       -5.6978145949       -0.9602170813
|113>  H          7.3604506866        5.1060986289        1.3316630456
|114>  C          6.9518730129       -5.9851411850       -1.0801719373
|115>  H          7.4088758679       -5.3640731856       -1.8473064807
|116>  C          4.8710706115       -6.6230165402        0.1174598334
|117>  H          7.4602011276       -5.8156802230       -0.1337359971
|118>  H          7.1004288949       -7.0266816044       -1.3585019419
|119>  C          4.7977243610       -6.0011984971       -2.3149948194
|120>  H          5.3192146829       -6.4022880006        1.0842427134
|121>  H          3.7949260910       -6.5003701873        0.2054264431
|122>  H          5.0771359484       -7.6625480074       -0.1293776408
|123>  H          5.1802357988       -5.3252381221       -3.0773633708
|124>  H          5.0189107494       -7.0226898691       -2.6176988723
|125>  H          3.7181062440       -5.8876650734       -2.2679962435
|126>  H         -0.0215873631       -2.7677019177        1.4019842702
|127>  C         -1.2244182823       -4.5361751430       -1.2335831893
|128>  C         -0.1478547831       -4.3465446103       -2.0915928091
|129>  H         -0.1521300908       -4.7750488714       -3.0809455051
|130>  C          0.9500133602       -3.5943997961       -1.7142024287
|131>  H          1.7567996418       -3.4377219000       -2.4168639471
|132>  C          1.0132764780       -3.0014081781       -0.4580937471
|133>  C         -1.1446268746       -3.9543150906        0.0299170027
|134>  C         -0.0542850949       -3.2023662667        0.4133557620
|135>  C         -2.4731892545       -5.3090929282       -1.6270990194
|136>  C         -2.3628939340       -5.9426645620       -3.0168631320
|137>  H         -2.2419406741       -5.1834862953       -3.7860128800
|138>  C         -2.7253655909       -6.4348021571       -0.6141348985
|139>  H         -1.5263321902       -6.6362917326       -3.0648038125
|140>  H         -3.2732634049       -6.4974707625       -3.2354120148
|141>  C         -3.6615187131       -4.3360927030       -1.6379587400
|142>  H         -1.8796509080       -7.1193285072       -0.5960169646
|143>  H         -2.8692498370       -6.0479537884        0.3904524222
|144>  H         -3.6162589608       -6.9945764872       -0.8916535093
|145>  H         -3.4897365224       -3.5403652022       -2.3599705339
|146>  H         -4.5752082234       -4.8599369597       -1.9121300647
|147>  H         -3.8098432134       -3.8756528480       -0.6651148952
|148>  C          4.2936089928        4.3931401190        2.7417634367
|149>  H          3.7089480353        4.3756870605        1.8248382579
|150>  C          6.2956014379        5.2189123742        1.5167008140
|151>  H          3.8881313851        3.6571023763        3.4325834774
|152>  H          4.1789060951        5.3770395447        3.1929019831
|153>  C          6.5241791598        4.2098995215        3.8052252203
|154>  H          6.1267916633        6.2034664695        1.9483551358
|155> *
|156> 
|157> 
|158>                          ****END OF INPUT****
================================================================================

                       *****************************
                       * Geometry Optimization Run *
                       *****************************

Geometry optimization settings:
Update method            Update   .... BFGS
Choice of coordinates    CoordSys .... Z-matrix Internals
Initial Hessian          InHess   .... Almoef's Model

Convergence Tolerances:
Energy Change            TolE     ....  5.0000e-06 Eh
Max. Gradient            TolMAXG  ....  3.0000e-04 Eh/bohr
RMS Gradient             TolRMSG  ....  1.0000e-04 Eh/bohr
Max. Displacement        TolMAXD  ....  4.0000e-03 bohr
RMS Displacement         TolRMSD  ....  2.0000e-03 bohr
Strict Convergence                ....  False
------------------------------------------------------------------------------
                        ORCA OPTIMIZATION COORDINATE SETUP
------------------------------------------------------------------------------

The optimization will be done in new redundant internal coordinates
Making redundant internal coordinates   ...  (new redundants) done
Evaluating the initial hessian          ...  (Almloef) done
Evaluating the coordinates              ...  done
Calculating the B-matrix                .... done
Calculating the G-matrix                .... done
Diagonalizing the G-matrix              .... done
Small eigenvalue found = 1.163e-03
Small eigenvalue found = 1.207e-03
Small eigenvalue found = 1.327e-03
Small eigenvalue found = 2.037e-03
Small eigenvalue found = 2.868e-03
Small eigenvalue found = 3.178e-03
Small eigenvalue found = 3.509e-03
Small eigenvalue found = 5.432e-03
Small eigenvalue found = 6.380e-03
Small eigenvalue found = 8.556e-03
Small eigenvalue found = 9.721e-03
Small eigenvalue found = 9.964e-03
Small eigenvalue found = 1.177e-02
Small eigenvalue found = 1.305e-02
Small eigenvalue found = 1.543e-02
Small eigenvalue found = 1.611e-02
Small eigenvalue found = 1.820e-02
Small eigenvalue found = 1.846e-02
Small eigenvalue found = 1.949e-02
Small eigenvalue found = 2.268e-02
Small eigenvalue found = 2.540e-02
Small eigenvalue found = 2.548e-02
Small eigenvalue found = 2.631e-02
Small eigenvalue found = 2.839e-02
The first mode is                       ....  429
The number of degrees of freedom        ....  438

    -----------------------------------------------------------------
                    Redundant Internal Coordinates


    -----------------------------------------------------------------
         Definition                    Initial Value    Approx d2E/dq
    -----------------------------------------------------------------
      1. B(C   2,C   1)                  1.4211         0.557320   
      2. B(C   3,C   2)                  1.3980         0.606605   
      3. B(C   4,C   2)                  1.4123         0.575579   
      4. B(H   5,C   4)                  1.0810         0.372155   
      5. B(C   6,C   4)                  1.3645         0.686257   
      6. B(H   7,C   6)                  1.0796         0.374149   
      7. B(C   8,C   6)                  1.4073         0.586426   
      8. B(C   9,C   8)                  1.5199         0.387682   
      9. B(C  10,C   8)                  1.3796         0.649165   
     10. B(C  10,C   1)                  1.4006         0.601032   
     11. B(H  11,C  10)                  1.0759         0.379261   
     12. B(C  13,C   0)                  1.3966         0.609770   
     13. B(C  14,C  13)                  1.4146         0.570788   
     14. B(C  15,C  14)                  1.4066         0.587829   
     15. B(C  16,C  14)                  1.4204         0.558724   
     16. B(C  17,C  16)                  1.4237         0.552037   
     17. B(C  17,C   3)                  1.3970         0.608903   
     18. B(C  18,C   1)                  1.4438         0.512725   
     19. B(C  18,C  16)                  1.4165         0.566851   
     20. B(C  19,C   0)                  1.4115         0.577401   
     21. B(C  20,C  18)                  1.3955         0.612274   
     22. B(C  20,C   0)                  1.3930         0.618004   
     23. B(H  21,C  20)                  1.0784         0.375843   
     24. B(H  22,C   3)                  1.0811         0.372088   
     25. B(C  24,C  15)                  1.3885         0.628358   
     26. B(C  25,C  24)                  1.3839         0.638953   
     27. B(C  25,H  23)                  1.0779         0.376468   
     28. B(C  25,C  17)                  1.4088         0.583046   
     29. B(H  26,C  15)                  1.0784         0.375713   
     30. B(C  27,C  24)                  1.5215         0.385425   
     31. B(C  29,C  27)                  1.5350         0.366807   
     32. B(H  30,C  29)                  1.0867         0.364508   
     33. B(C  31,C  27)                  1.5308         0.372456   
     34. B(H  32,C  29)                  1.0882         0.362475   
     35. B(H  33,C  29)                  1.0881         0.362594   
     36. B(C  34,C  27)                  1.5351         0.366588   
     37. B(H  35,C  31)                  1.0876         0.363267   
     38. B(H  36,C  31)                  1.0877         0.363144   
     39. B(H  37,C  31)                  1.0883         0.362358   
     40. B(H  38,C  34)                  1.0866         0.364664   
     41. B(H  39,C  34)                  1.0881         0.362583   
     42. B(H  40,C  34)                  1.0883         0.362351   
     43. B(C  43,C  42)                  1.3934         0.617093   
     44. B(H  44,C  43)                  1.0796         0.374103   
     45. B(C  45,C  43)                  1.3785         0.651844   
     46. B(H  46,C  45)                  1.0802         0.373288   
     47. B(C  47,C  45)                  1.3927         0.618622   
     48. B(C  47,C  13)                  1.4706         0.464744   
     49. B(C  48,C  42)                  1.3898         0.625255   
     50. B(C  48,H  12)                  1.0785         0.375613   
     51. B(C  49,C  48)                  1.3844         0.637736   
     52. B(C  49,C  47)                  1.3898         0.625191   
     53. B(C  49,H  41)                  1.0814         0.371648   
     54. B(C  50,C  42)                  1.5206         0.386679   
     55. B(C  51,C  50)                  1.5355         0.366071   
     56. B(H  52,C  51)                  1.0877         0.363111   
     57. B(C  53,C  50)                  1.5360         0.365424   
     58. B(H  54,C  51)                  1.0863         0.364980   
     59. B(H  55,C  51)                  1.0884         0.362168   
     60. B(C  56,C  50)                  1.5313         0.371840   
     61. B(H  57,C  53)                  1.0864         0.364893   
     62. B(H  58,C  53)                  1.0883         0.362383   
     63. B(H  59,C  53)                  1.0881         0.362620   
     64. B(H  60,C  56)                  1.0872         0.363798   
     65. B(H  61,C  56)                  1.0884         0.362204   
     66. B(H  62,C  56)                  1.0878         0.363072   
     67. B(C  63,C   9)                  1.5309         0.372400   
     68. B(H  64,C  63)                  1.0871         0.363893   
     69. B(C  65,C   9)                  1.5357         0.365837   
     70. B(H  66,C  63)                  1.0880         0.362762   
     71. B(H  67,C  63)                  1.0885         0.362131   
     72. B(C  68,C   9)                  1.5356         0.365985   
     73. B(H  69,C  65)                  1.0882         0.362542   
     74. B(H  70,C  65)                  1.0881         0.362568   
     75. B(H  71,C  65)                  1.0867         0.364534   
     76. B(H  72,C  68)                  1.0882         0.362508   
     77. B(H  73,C  68)                  1.0861         0.365273   
     78. B(H  74,C  68)                  1.0882         0.362547   
     79. B(C  80,C  79)                  1.4208         0.558043   
     80. B(C  81,C  80)                  1.3983         0.606012   
     81. B(C  82,C  80)                  1.4125         0.575278   
     82. B(H  83,C  82)                  1.0810         0.372147   
     83. B(C  84,C  82)                  1.3648         0.685480   
     84. B(H  85,C  84)                  1.0797         0.374049   
     85. B(C  86,C  84)                  1.4074         0.586073   
     86. B(C  87,C  86)                  1.5197         0.387919   
     87. B(C  88,C  86)                  1.3797         0.648983   
     88. B(C  88,C  79)                  1.4003         0.601674   
     89. B(H  89,C  88)                  1.0762         0.378776   
     90. B(H  89,H  12)                  4.7784         0.000000   
     91. B(H  90,H  11)                  3.1720         0.000033   
     92. B(C  91,C  78)                  1.3965         0.610008   
     93. B(C  92,C  91)                  1.4157         0.568527   
     94. B(C  93,C  92)                  1.4065         0.588020   
     95. B(C  94,C  92)                  1.4203         0.558927   
     96. B(C  95,C  94)                  1.4237         0.552053   
     97. B(C  95,C  81)                  1.3975         0.607796   
     98. B(C  96,C  94)                  1.4159         0.568055   
     99. B(C  96,C  79)                  1.4429         0.514404   
    100. B(C  97,C  78)                  1.4112         0.577969   
    101. B(C  97,C  19)                  1.2067         1.225268   
    102. B(C  98,C  96)                  1.3947         0.614005   
    103. B(C  98,C  78)                  1.3936         0.616633   
    104. B(H  99,C  98)                  1.0787         0.375323   
    105. B(H  99,H  52)                  3.2134         0.000028   
    106. B(H 100,C  81)                  1.0811         0.372066   
    107. B(C 102,C  93)                  1.3888         0.627525   
    108. B(C 103,C 102)                  1.3840         0.638757   
    109. B(C 103,H 101)                  1.0779         0.376482   
    110. B(C 103,C  95)                  1.4087         0.583211   
    111. B(H 104,C  93)                  1.0785         0.375707   
    112. B(C 105,C 102)                  1.5216         0.385244   
    113. B(C 107,C 105)                  1.5309         0.372392   
    114. B(H 108,C 107)                  1.0877         0.363167   
    115. B(C 109,C 105)                  1.5349         0.366858   
    116. B(H 110,C 107)                  1.0876         0.363300   
    117. B(H 111,C 107)                  1.0883         0.362389   
    118. B(C 112,C 105)                  1.5352         0.366497   
    119. B(H 113,C 109)                  1.0882         0.362462   
    120. B(H 114,C 109)                  1.0867         0.364523   
    121. B(H 115,C 109)                  1.0881         0.362588   
    122. B(H 116,C 112)                  1.0883         0.362328   
    123. B(H 117,C 112)                  1.0881         0.362600   
    124. B(H 118,C 112)                  1.0866         0.364642   
    125. B(C 121,C 120)                  1.3897         0.625599   
    126. B(H 122,C 121)                  1.0782         0.376093   
    127. B(C 123,C 121)                  1.3833         0.640416   
    128. B(H 124,C 123)                  1.0813         0.371810   
    129. B(C 125,C 123)                  1.3905         0.623683   
    130. B(C 125,C  91)                  1.4689         0.467574   
    131. B(C 126,C 120)                  1.3933         0.617206   
    132. B(C 126,H  90)                  1.0800         0.373554   
    133. B(C 127,C 126)                  1.3789         0.650859   
    134. B(C 127,C 125)                  1.3927         0.618725   
    135. B(C 127,H 119)                  1.0805         0.372947   
    136. B(C 128,C 120)                  1.5204         0.386952   
    137. B(C 129,C 128)                  1.5313         0.371731   
    138. B(H 130,C 129)                  1.0875         0.363474   
    139. B(C 131,C 128)                  1.5352         0.366475   
    140. B(H 132,C 129)                  1.0878         0.363057   
    141. B(H 133,C 129)                  1.0883         0.362387   
    142. B(C 134,C 128)                  1.5359         0.365571   
    143. B(H 135,C 131)                  1.0882         0.362514   
    144. B(H 136,C 131)                  1.0861         0.365335   
    145. B(H 137,C 131)                  1.0881         0.362565   
    146. B(H 138,H  21)                  4.0329         0.000001   
    147. B(H 138,C 134)                  1.0881         0.362603   
    148. B(H 139,C 134)                  1.0883         0.362347   
    149. B(H 140,H  64)                  2.3105         0.000778   
    150. B(H 140,C 134)                  1.0865         0.364792   
    151. B(C 141,C  87)                  1.5314         0.371594   
    152. B(H 142,H  60)                  2.3207         0.000750   
    153. B(H 142,C 141)                  1.0876         0.363282   
    154. B(C 143,H 106)                  1.0867         0.364521   
    155. B(C 143,C  87)                  1.5355         0.366159   
    156. B(C 143,H  28)                  1.0873         0.363744   
    157. B(H 144,C 141)                  1.0878         0.362969   
    158. B(H 145,C 141)                  1.0885         0.362146   
    159. B(C 146,C  87)                  1.5361         0.365336   
    160. B(C 146,H  77)                  1.0881         0.362584   
    161. B(C 146,H  76)                  1.0863         0.365087   
    162. B(C 146,H  75)                  1.0882         0.362530   
    163. B(H 147,C 143)                  1.0882         0.362495   
    164. A(C  19,C   0,C  20)          119.4347         0.428303   
    165. A(C  13,C   0,C  20)          121.2806         0.432518   
    166. A(C  13,C   0,C  19)          119.2644         0.427275   
    167. A(C   2,C   1,C  10)          118.4238         0.423481   
    168. A(C   2,C   1,C  18)          118.7317         0.411665   
    169. A(C  10,C   1,C  18)          122.8431         0.417226   
    170. A(C   1,C   2,C   4)          118.3817         0.420221   
    171. A(C   3,C   2,C   4)          121.1662         0.426635   
    172. A(C   1,C   2,C   3)          120.4519         0.424180   
    173. A(C  17,C   3,H  22)          119.2794         0.353788   
    174. A(C   2,C   3,H  22)          119.0344         0.353561   
    175. A(C   2,C   3,C  17)          121.6861         0.430964   
    176. A(C   2,C   4,C   6)          121.3109         0.436196   
    177. A(C   2,C   4,H   5)          118.3772         0.350447   
    178. A(H   5,C   4,C   6)          120.3119         0.361064   
    179. A(H   7,C   6,C   8)          119.8860         0.351872   
    180. A(C   4,C   6,H   7)          118.9962         0.361393   
    181. A(C   4,C   6,C   8)          121.1169         0.437666   
    182. A(C   6,C   8,C  10)          117.9381         0.433309   
    183. A(C   9,C   8,C  10)          123.0861         0.402521   
    184. A(C   6,C   8,C   9)          118.9737         0.395391   
    185. A(C   8,C   9,C  65)          108.6079         0.364355   
    186. A(C  63,C   9,C  65)          108.2177         0.361860   
    187. A(C  63,C   9,C  68)          107.7963         0.361885   
    188. A(C   8,C   9,C  63)          112.9207         0.365466   
    189. A(C   8,C   9,C  68)          109.3858         0.364380   
    190. A(C  65,C   9,C  68)          109.8836         0.360789   
    191. A(C   1,C  10,H  11)          118.0922         0.354153   
    192. A(C   8,C  10,H  11)          119.1105         0.358817   
    193. A(C   1,C  10,C   8)          122.7942         0.435231   
    194. A(C   0,C  13,C  14)          118.8257         0.426394   
    195. A(C   0,C  13,C  47)          118.4259         0.411058   
    196. A(C  14,C  13,C  47)          122.7424         0.406278   
    197. A(C  15,C  14,C  16)          119.2939         0.421993   
    198. A(C  13,C  14,C  16)          119.4482         0.419783   
    199. A(C  13,C  14,C  15)          121.2335         0.423607   
    200. A(C  14,C  15,H  26)          117.4002         0.352262   
    201. A(C  14,C  15,C  24)          122.5676         0.430964   
    202. A(C  24,C  15,H  26)          120.0295         0.356265   
    203. A(C  14,C  16,C  17)          118.2307         0.417292   
    204. A(C  17,C  16,C  18)          120.7153         0.418367   
    205. A(C  14,C  16,C  18)          121.0504         0.419266   
    206. A(C   3,C  17,C  16)          119.0030         0.423745   
    207. A(C  16,C  17,C  25)          119.8796         0.420473   
    208. A(C   3,C  17,C  25)          121.1147         0.427911   
    209. A(C   1,C  18,C  16)          119.3780         0.412905   
    210. A(C  16,C  18,C  20)          117.9094         0.426179   
    211. A(C   1,C  18,C  20)          122.7115         0.418606   
    212. L(C   0,C  19,C  97,C  13, 1) 179.4464         0.485155   
    213. L(C   0,C  19,C  97,C  13, 2) 179.6364         0.485155   
    214. A(C  18,C  20,H  21)          121.3837         0.354722   
    215. A(C   0,C  20,C  18)          121.4651         0.432837   
    216. A(C   0,C  20,H  21)          117.1511         0.355283   
    217. A(C  25,C  24,C  27)          122.9965         0.400985   
    218. A(C  15,C  24,C  27)          118.9103         0.399807   
    219. A(C  15,C  24,C  25)          118.0921         0.437480   
    220. A(H  23,C  25,C  24)          121.1517         0.357401   
    221. A(C  17,C  25,H  23)          116.9424         0.351895   
    222. A(C  17,C  25,C  24)          121.9013         0.431627   
    223. A(C  31,C  27,C  34)          108.1793         0.361996   
    224. A(C  29,C  27,C  34)          109.7940         0.361054   
    225. A(C  29,C  27,C  31)          108.2562         0.362033   
    226. A(C  24,C  27,C  34)          108.9974         0.364119   
    227. A(C  24,C  27,C  31)          112.6759         0.365110   
    228. A(C  24,C  27,C  29)          108.9108         0.364157   
    229. A(H  30,C  29,H  33)          108.2812         0.291712   
    230. A(C  27,C  29,H  33)          110.1642         0.323714   
    231. A(C  27,C  29,H  32)          110.2082         0.323696   
    232. A(H  32,C  29,H  33)          108.5023         0.291456   
    233. A(H  30,C  29,H  32)          108.2297         0.291697   
    234. A(C  27,C  29,H  30)          111.3735         0.323993   
    235. A(H  36,C  31,H  37)          107.9884         0.291511   
    236. A(C  27,C  31,H  35)          111.1050         0.324626   
    237. A(C  27,C  31,H  37)          109.4681         0.324492   
    238. A(C  27,C  31,H  36)          111.0724         0.324607   
    239. A(H  35,C  31,H  37)          107.9296         0.291526   
    240. A(H  35,C  31,H  36)          109.1735         0.291626   
    241. A(H  39,C  34,H  40)          108.4756         0.291439   
    242. A(H  38,C  34,H  40)          108.3295         0.291701   
    243. A(C  27,C  34,H  40)          110.2089         0.323646   
    244. A(H  38,C  34,H  39)          108.2096         0.291731   
    245. A(C  27,C  34,H  38)          111.3901         0.323984   
    246. A(C  27,C  34,H  39)          110.1449         0.323680   
    247. A(C  48,C  42,C  50)          123.3739         0.399687   
    248. A(C  43,C  42,C  50)          119.2771         0.398765   
    249. A(C  43,C  42,C  48)          117.3468         0.434358   
    250. A(H  44,C  43,C  45)          118.2855         0.358232   
    251. A(C  42,C  43,C  45)          121.6247         0.437629   
    252. A(C  42,C  43,H  44)          120.0898         0.354914   
    253. A(H  46,C  45,C  47)          119.4536         0.354932   
    254. A(C  43,C  45,C  47)          120.7579         0.437824   
    255. A(C  43,C  45,H  46)          119.7848         0.358100   
    256. A(C  45,C  47,C  49)          118.0139         0.434544   
    257. A(C  13,C  47,C  49)          122.1033         0.412884   
    258. A(C  13,C  47,C  45)          119.8378         0.412110   
    259. A(C  42,C  48,C  49)          121.3534         0.436940   
    260. A(H  12,C  48,C  49)          118.0065         0.357147   
    261. A(H  12,C  48,C  42)          120.6397         0.355950   
    262. A(C  47,C  49,C  48)          120.9027         0.436932   
    263. A(H  41,C  49,C  48)          119.6184         0.356503   
    264. A(H  41,C  49,C  47)          119.4651         0.355303   
    265. A(C  53,C  50,C  56)          107.9515         0.361698   
    266. A(C  51,C  50,C  56)          108.5126         0.361807   
    267. A(C  42,C  50,C  56)          112.7766         0.365209   
    268. A(C  51,C  50,C  53)          109.5922         0.360734   
    269. A(C  42,C  50,C  53)          108.7479         0.364124   
    270. A(C  42,C  50,C  51)          109.2199         0.364234   
    271. A(H  54,C  51,H  55)          108.0355         0.291718   
    272. A(H  52,C  51,H  55)          108.4659         0.291483   
    273. A(C  50,C  51,H  55)          110.1905         0.323544   
    274. A(H  52,C  51,H  54)          107.7910         0.291837   
    275. A(C  50,C  51,H  54)          111.4931         0.323955   
    276. A(C  50,C  51,H  52)          110.7553         0.323682   
    277. A(H  58,C  53,H  59)          108.4947         0.291448   
    278. A(H  57,C  53,H  59)          108.2663         0.291764   
    279. A(C  50,C  53,H  59)          110.1430         0.323517   
    280. A(H  57,C  53,H  58)          108.2564         0.291734   
    281. A(C  50,C  53,H  58)          110.2559         0.323482   
    282. A(C  50,C  53,H  57)          111.3428         0.323849   
    283. A(H  61,C  56,H  62)          107.9095         0.291482   
    284. A(H  60,C  56,H  62)          108.9838         0.291683   
    285. A(C  50,C  56,H  62)          111.0263         0.324509   
    286. A(H  60,C  56,H  61)          107.9530         0.291574   
    287. A(C  50,C  56,H  61)          109.4922         0.324381   
    288. A(C  50,C  56,H  60)          111.3640         0.324615   
    289. A(H  66,C  63,H  67)          108.0712         0.291434   
    290. A(H  64,C  63,H  67)          107.7727         0.291576   
    291. A(C   9,C  63,H  67)          109.4907         0.324451   
    292. A(H  64,C  63,H  66)          109.3420         0.291656   
    293. A(C   9,C  63,H  66)          111.1633         0.324543   
    294. A(C   9,C  63,H  64)          110.8973         0.324709   
    295. A(H  69,C  65,H  71)          108.2399         0.291709   
    296. A(C   9,C  65,H  71)          111.2637         0.323856   
    297. A(H  69,C  65,H  70)          108.5719         0.291461   
    298. A(H  70,C  65,H  71)          108.3476         0.291712   
    299. A(C   9,C  65,H  70)          110.2046         0.323569   
    300. A(C   9,C  65,H  69)          110.1374         0.323565   
    301. A(H  73,C  68,H  74)          108.0533         0.291803   
    302. A(H  72,C  68,H  74)          108.4963         0.291454   
    303. A(H  72,C  68,H  73)          108.2836         0.291798   
    304. A(C   9,C  68,H  73)          111.6884         0.323985   
    305. A(C   9,C  68,H  72)          110.1740         0.323582   
    306. A(C   9,C  68,H  74)          110.0555         0.323587   
    307. A(C  97,C  78,C  98)          118.2314         0.428208   
    308. A(C  91,C  78,C  98)          121.2908         0.432376   
    309. A(C  91,C  78,C  97)          120.4002         0.427380   
    310. A(C  88,C  79,C  96)          122.6634         0.417549   
    311. A(C  80,C  79,C  96)          118.7483         0.411998   
    312. A(C  80,C  79,C  88)          118.5701         0.423660   
    313. A(C  81,C  80,C  82)          121.3699         0.426520   
    314. A(C  79,C  80,C  82)          118.2666         0.420279   
    315. A(C  79,C  80,C  81)          120.3498         0.424205   
    316. A(C  95,C  81,H 100)          119.2692         0.353675   
    317. A(C  80,C  81,H 100)          119.0507         0.353499   
    318. A(C  80,C  81,C  95)          121.6622         0.430747   
    319. A(H  83,C  82,C  84)          120.3057         0.360993   
    320. A(C  80,C  82,C  84)          121.2820         0.436066   
    321. A(C  80,C  82,H  83)          118.4077         0.350415   
    322. A(H  85,C  84,C  86)          119.8470         0.351820   
    323. A(C  82,C  84,C  86)          121.1644         0.437530   
    324. A(C  82,C  84,H  85)          118.9827         0.361307   
    325. A(C  87,C  86,C  88)          122.9884         0.402545   
    326. A(C  84,C  86,C  88)          117.9093         0.433240   
    327. A(C  84,C  86,C  87)          119.1017         0.395392   
    328. A(C 143,C  87,C 146)          109.7055         0.360734   
    329. A(C 141,C  87,C 146)          107.7602         0.361642   
    330. A(C  86,C  87,C 146)          109.0462         0.364308   
    331. A(C 141,C  87,C 143)          108.4412         0.361781   
    332. A(C  86,C  87,C 143)          109.0064         0.364448   
    333. A(C  86,C  87,C 141)          112.8448         0.365368   
    334. A(C  86,C  88,H  89)          119.2461         0.358721   
    335. A(C  79,C  88,H  89)          118.0440         0.354140   
    336. A(C  79,C  88,C  86)          122.6956         0.435293   
    337. A(C  92,C  91,C 125)          122.9250         0.406429   
    338. A(C  78,C  91,C 125)          118.2356         0.411530   
    339. A(C  78,C  91,C  92)          118.7742         0.426121   
    340. A(C  93,C  92,C  94)          119.1286         0.422045   
    341. A(C  91,C  92,C  94)          119.4698         0.419514   
    342. A(C  91,C  92,C  93)          121.3886         0.423331   
    343. A(C 102,C  93,H 104)          119.9813         0.356184   
    344. A(C  92,C  93,H 104)          117.4650         0.352281   
    345. A(C  92,C  93,C 102)          122.5528         0.430887   
    346. A(C  95,C  94,C  96)          120.6276         0.418527   
    347. A(C  92,C  94,C  96)          120.9896         0.419451   
    348. A(C  92,C  94,C  95)          118.3823         0.417321   
    349. A(C  94,C  95,C 103)          119.7827         0.420497   
    350. A(C  81,C  95,C 103)          121.2114         0.427794   
    351. A(C  81,C  95,C  94)          119.0054         0.423609   
    352. A(C  94,C  96,C  98)          117.9753         0.426556   
    353. A(C  79,C  96,C  98)          122.6429         0.419061   
    354. A(C  79,C  96,C  94)          119.3811         0.413301   
    355. L(C  19,C  97,C  78,C  98, 2) 184.9772         0.485243   
    356. L(C  19,C  97,C  78,C  98, 1) 177.8080         0.485243   
    357. A(C  96,C  98,H  99)          121.3548         0.354809   
    358. A(C  78,C  98,H  99)          117.1863         0.355066   
    359. A(C  78,C  98,C  96)          121.4379         0.432884   
    360. A(C 103,C 102,C 105)          122.9574         0.400931   
    361. A(C  93,C 102,C 105)          118.8925         0.399680   
    362. A(C  93,C 102,C 103)          118.1501         0.437351   
    363. A(H 101,C 103,C 102)          121.1588         0.357384   
    364. A(C  95,C 103,C 102)          121.8570         0.431625   
    365. A(C  95,C 103,H 101)          116.9754         0.351914   
    366. A(C 109,C 105,C 112)          109.7940         0.361047   
    367. A(C 107,C 105,C 112)          108.1603         0.361970   
    368. A(C 102,C 105,C 112)          109.0677         0.364075   
    369. A(C 107,C 105,C 109)          108.2453         0.362031   
    370. A(C 102,C 105,C 109)          108.8643         0.364136   
    371. A(C 102,C 105,C 107)          112.6816         0.365070   
    372. A(H 110,C 107,H 111)          107.9315         0.291534   
    373. A(H 108,C 107,H 111)          107.9834         0.291517   
    374. A(C 105,C 107,H 111)          109.4705         0.324487   
    375. A(H 108,C 107,H 110)          109.1719         0.291633   
    376. A(C 105,C 107,H 110)          111.1117         0.324621   
    377. A(C 105,C 107,H 108)          111.0677         0.324602   
    378. A(H 114,C 109,H 115)          108.2840         0.291714   
    379. A(H 113,C 109,H 115)          108.5010         0.291454   
    380. A(C 105,C 109,H 115)          110.1682         0.323720   
    381. A(H 113,C 109,H 114)          108.2409         0.291698   
    382. A(C 105,C 109,H 114)          111.3619         0.324003   
    383. A(C 105,C 109,H 113)          110.2037         0.323702   
    384. A(H 117,C 112,H 118)          108.1853         0.291730   
    385. A(H 116,C 112,H 118)          108.3377         0.291696   
    386. A(C 105,C 112,H 118)          111.4249         0.323968   
    387. A(H 116,C 112,H 117)          108.4669         0.291438   
    388. A(C 105,C 112,H 117)          110.1359         0.323669   
    389. A(C 105,C 112,H 116)          110.2068         0.323629   
    390. A(C 126,C 120,C 128)          119.6059         0.398827   
    391. A(C 121,C 120,C 128)          123.0830         0.399775   
    392. A(C 121,C 120,C 126)          117.2934         0.434416   
    393. A(H 122,C 121,C 123)          118.0082         0.357479   
    394. A(C 120,C 121,C 123)          121.3730         0.437314   
    395. A(C 120,C 121,H 122)          120.6145         0.356060   
    396. A(H 124,C 123,C 125)          119.4258         0.355184   
    397. A(C 121,C 123,C 125)          120.9609         0.437072   
    398. A(C 121,C 123,H 124)          119.5829         0.356784   
    399. A(C 123,C 125,C 127)          117.9602         0.434368   
    400. A(C  91,C 125,C 127)          120.4357         0.412567   
    401. A(C  91,C 125,C 123)          121.4948         0.413152   
    402. A(C 120,C 126,C 127)          121.6809         0.437524   
    403. A(H  90,C 126,C 127)          118.2509         0.358051   
    404. A(H  90,C 126,C 120)          120.0679         0.354837   
    405. A(C 125,C 127,C 126)          120.7199         0.437718   
    406. A(H 119,C 127,C 126)          119.8521         0.357952   
    407. A(H 119,C 127,C 125)          119.4270         0.354887   
    408. A(C 131,C 128,C 134)          110.0047         0.360827   
    409. A(C 129,C 128,C 134)          108.1444         0.361704   
    410. A(C 120,C 128,C 134)          108.3759         0.364193   
    411. A(C 129,C 128,C 131)          107.8947         0.361857   
    412. A(C 120,C 128,C 131)          109.6877         0.364346   
    413. A(C 120,C 128,C 129)          112.7095         0.365235   
    414. A(H 132,C 129,H 133)          108.0234         0.291503   
    415. A(H 130,C 129,H 133)          107.8729         0.291556   
    416. A(C 128,C 129,H 133)          109.4465         0.324393   
    417. A(H 130,C 129,H 132)          109.1748         0.291641   
    418. A(C 128,C 129,H 132)          111.0517         0.324491   
    419. A(C 128,C 129,H 130)          111.1659         0.324552   
    420. A(H 135,C 131,H 137)          108.4781         0.291457   
    421. A(C 128,C 131,H 137)          110.0851         0.323661   
    422. A(H 135,C 131,H 136)          108.1572         0.291806   
    423. A(C 128,C 131,H 136)          111.7708         0.324066   
    424. A(C 128,C 131,H 135)          110.1564         0.323654   
    425. A(H 136,C 131,H 137)          108.0998         0.291813   
    426. A(H 139,C 134,H 140)          108.3578         0.291717   
    427. A(H 138,C 134,H 140)          107.8053         0.291749   
    428. A(C 128,C 134,H 140)          111.5781         0.323855   
    429. A(H 138,C 134,H 139)          108.5043         0.291441   
    430. A(C 128,C 134,H 139)          110.2682         0.323498   
    431. A(C 128,C 134,H 138)          110.2321         0.323536   
    432. A(H 144,C 141,H 145)          108.0064         0.291462   
    433. A(H 142,C 141,H 145)          107.8958         0.291501   
    434. A(C  87,C 141,H 145)          109.4260         0.324337   
    435. A(H 142,C 141,H 144)          108.9142         0.291605   
    436. A(C  87,C 141,H 144)          111.0245         0.324458   
    437. A(C  87,C 141,H 142)          111.4608         0.324504   
    438. A(H 106,C 143,H 147)          108.2693         0.291702   
    439. A(C  87,C 143,H 147)          110.1541         0.323605   
    440. A(H  28,C 143,H 147)          108.5609         0.291604   
    441. A(C  87,C 143,H 106)          111.2690         0.323901   
    442. A(H  28,C 143,H 106)          108.2747         0.291859   
    443. A(H  28,C 143,C  87)          110.2352         0.323788   
    444. A(H  77,C 146,C  87)          110.0635         0.323499   
    445. A(H  76,C 146,C  87)          111.5987         0.323864   
    446. A(H  75,C 146,C  87)          110.1981         0.323491   
    447. A(H  76,C 146,H  77)          108.1193         0.291784   
    448. A(H  75,C 146,H  77)          108.4995         0.291462   
    449. A(H  75,C 146,H  76)          108.2747         0.291777   
    450. D(C   3,C   2,C   1,C  10)    178.0216         0.021268   
    451. D(C   3,C   2,C   1,C  18)     -1.5516         0.021268   
    452. D(C   4,C   2,C   1,C  18)    178.5912         0.021268   
    453. D(C   4,C   2,C   1,C  10)     -1.8356         0.021268   
    454. D(C  17,C   3,C   2,C   1)      0.0109         0.025398   
    455. D(C  17,C   3,C   2,C   4)    179.8641         0.025398   
    456. D(H  22,C   3,C   2,C   4)     -0.0147         0.025398   
    457. D(H  22,C   3,C   2,C   1)   -179.8679         0.025398   
    458. D(C   6,C   4,C   2,C   1)      1.0902         0.022745   
    459. D(C   6,C   4,C   2,C   3)   -178.7659         0.022745   
    460. D(H   5,C   4,C   2,C   1)   -179.0460         0.022745   
    461. D(H   5,C   4,C   2,C   3)      1.0978         0.022745   
    462. D(H   7,C   6,C   4,H   5)      0.4509         0.033061   
    463. D(C   8,C   6,C   4,C   2)      0.6516         0.033061   
    464. D(H   7,C   6,C   4,C   2)   -179.6879         0.033061   
    465. D(C   8,C   6,C   4,H   5)   -179.2096         0.033061   
    466. D(C   9,C   8,C   6,H   7)     -0.7245         0.023652   
    467. D(C  10,C   8,C   6,H   7)    178.7537         0.023652   
    468. D(C  10,C   8,C   6,C   4)     -1.5887         0.023652   
    469. D(C   9,C   8,C   6,C   4)    178.9330         0.023652   
    470. D(C  65,C   9,C   8,C  10)   -115.2089         0.011189   
    471. D(C  68,C   9,C   8,C   6)    -55.6873         0.011189   
    472. D(C  68,C   9,C   8,C  10)    124.8629         0.011189   
    473. D(C  63,C   9,C   8,C  10)      4.8253         0.011189   
    474. D(C  63,C   9,C   8,C   6)   -175.7248         0.011189   
    475. D(C  65,C   9,C   8,C   6)     64.2409         0.011189   
    476. D(C   1,C  10,C   8,C   9)   -179.7559         0.029337   
    477. D(C   8,C  10,C   1,C  18)   -179.5274         0.024908   
    478. D(C   8,C  10,C   1,C   2)      0.9180         0.024908   
    479. D(C   1,C  10,C   8,C   6)      0.7889         0.029337   
    480. D(H  11,C  10,C   1,C   2)   -178.4355         0.024908   
    481. D(H  11,C  10,C   1,C  18)      1.1192         0.024908   
    482. D(H  11,C  10,C   8,C   6)   -179.8640         0.029337   
    483. D(H  11,C  10,C   8,C   9)     -0.4087         0.029337   
    484. D(C  47,C  13,C   0,C  20)    179.7799         0.025678   
    485. D(C  47,C  13,C   0,C  19)      1.4257         0.025678   
    486. D(C  14,C  13,C   0,C  20)     -1.0850         0.025678   
    487. D(C  14,C  13,C   0,C  19)   -179.4391         0.025678   
    488. D(C  15,C  14,C  13,C   0)   -176.9239         0.022352   
    489. D(C  16,C  14,C  13,C   0)      1.2659         0.022352   
    490. D(C  16,C  14,C  13,C  47)   -179.6384         0.022352   
    491. D(C  15,C  14,C  13,C  47)      2.1719         0.022352   
    492. D(C  24,C  15,C  14,C  16)      2.1133         0.023771   
    493. D(H  26,C  15,C  14,C  16)   -177.2856         0.023771   
    494. D(H  26,C  15,C  14,C  13)      0.9069         0.023771   
    495. D(C  24,C  15,C  14,C  13)   -179.6942         0.023771   
    496. D(C  17,C  16,C  14,C  13)   -179.5489         0.021380   
    497. D(C  17,C  16,C  14,C  15)     -1.3237         0.021380   
    498. D(C  18,C  16,C  14,C  13)     -0.2280         0.021380   
    499. D(C  18,C  16,C  14,C  15)    177.9971         0.021380   
    500. D(C  25,C  17,C  16,C  18)   -179.6324         0.020853   
    501. D(C   3,C  17,C  16,C  18)     -0.2195         0.020853   
    502. D(C  25,C  17,C  16,C  14)     -0.3091         0.020853   
    503. D(C   3,C  17,C  16,C  14)    179.1037         0.020853   
    504. D(C  25,C  17,C   3,H  22)      0.1770         0.025601   
    505. D(C  25,C  17,C   3,C   2)   -179.7015         0.025601   
    506. D(C  16,C  17,C   3,C   2)      0.8932         0.025601   
    507. D(C  16,C  17,C   3,H  22)   -179.2283         0.025601   
    508. D(C   1,C  18,C  16,C  14)    179.3797         0.022031   
    509. D(C  20,C  18,C   1,C  10)      3.0297         0.017919   
    510. D(C  16,C  18,C   1,C  10)   -177.3720         0.017919   
    511. D(C  16,C  18,C   1,C   2)      2.1813         0.017919   
    512. D(C  20,C  18,C   1,C   2)   -177.4170         0.017919   
    513. D(C  20,C  18,C  16,C  17)    178.3012         0.022031   
    514. D(C   1,C  18,C  16,C  17)     -1.3163         0.022031   
    515. D(C  20,C  18,C  16,C  14)     -1.0028         0.022031   
    516. D(H  21,C  20,C  18,C  16)   -178.9004         0.025902   
    517. D(H  21,C  20,C  18,C   1)      0.7034         0.025902   
    518. D(C   0,C  20,C  18,C   1)   -179.1826         0.025902   
    519. D(H  21,C  20,C   0,C  19)     -1.7174         0.026418   
    520. D(H  21,C  20,C   0,C  13)    179.9312         0.026418   
    521. D(C   0,C  20,C  18,C  16)      1.2135         0.025902   
    522. D(C  18,C  20,C   0,C  13)     -0.1781         0.026418   
    523. D(C  18,C  20,C   0,C  19)    178.1733         0.026418   
    524. D(C  27,C  24,C  15,H  26)     -1.3935         0.027367   
    525. D(C  27,C  24,C  15,C  14)    179.2230         0.027367   
    526. D(C  25,C  24,C  15,C  14)     -1.1474         0.027367   
    527. D(C  25,C  24,C  15,H  26)    178.2362         0.027367   
    528. D(H  23,C  25,C  24,C  27)     -0.1634         0.028359   
    529. D(C  17,C  25,C  24,C  15)     -0.5812         0.028359   
    530. D(C  24,C  25,C  17,C  16)      1.2996         0.023367   
    531. D(H  23,C  25,C  24,C  15)   -179.7768         0.028359   
    532. D(C  17,C  25,C  24,C  27)    179.0322         0.028359   
    533. D(C  24,C  25,C  17,C   3)   -178.1006         0.023367   
    534. D(H  23,C  25,C  17,C   3)      1.1272         0.023367   
    535. D(H  23,C  25,C  17,C  16)   -179.4727         0.023367   
    536. D(C  34,C  27,C  24,C  25)    121.5867         0.011066   
    537. D(C  34,C  27,C  24,C  15)    -58.8029         0.011066   
    538. D(C  31,C  27,C  24,C  25)      1.4908         0.011066   
    539. D(C  31,C  27,C  24,C  15)   -178.8988         0.011066   
    540. D(C  29,C  27,C  24,C  25)   -118.6429         0.011066   
    541. D(C  29,C  27,C  24,C  15)     60.9675         0.011066   
    542. D(H  33,C  29,C  27,C  34)    -61.4752         0.010767   
    543. D(H  33,C  29,C  27,C  31)     56.4215         0.010767   
    544. D(H  32,C  29,C  27,C  34)    178.8281         0.010767   
    545. D(H  32,C  29,C  27,C  31)    -63.2752         0.010767   
    546. D(H  32,C  29,C  27,C  24)     59.5530         0.010767   
    547. D(H  30,C  29,C  27,C  34)     58.6942         0.010767   
    548. D(H  30,C  29,C  27,C  31)    176.5908         0.010767   
    549. D(H  30,C  29,C  27,C  24)    -60.5809         0.010767   
    550. D(H  33,C  29,C  27,C  24)    179.2497         0.010767   
    551. D(H  37,C  31,C  27,C  34)     58.9410         0.011081   
    552. D(H  37,C  31,C  27,C  29)    -59.9828         0.011081   
    553. D(H  37,C  31,C  27,C  24)    179.5072         0.011081   
    554. D(H  36,C  31,C  27,C  34)    -60.2177         0.011081   
    555. D(H  36,C  31,C  27,C  29)   -179.1415         0.011081   
    556. D(H  36,C  31,C  27,C  24)     60.3485         0.011081   
    557. D(H  35,C  31,C  27,C  34)    178.0472         0.011081   
    558. D(H  35,C  31,C  27,C  29)     59.1234         0.011081   
    559. D(H  35,C  31,C  27,C  24)    -61.3866         0.011081   
    560. D(H  40,C  34,C  27,C  29)   -178.2426         0.010755   
    561. D(H  40,C  34,C  27,C  24)    -59.0206         0.010755   
    562. D(H  39,C  34,C  27,C  31)    -55.8389         0.010755   
    563. D(H  39,C  34,C  27,C  29)     62.1056         0.010755   
    564. D(H  39,C  34,C  27,C  24)   -178.6724         0.010755   
    565. D(H  38,C  34,C  27,C  31)   -175.9163         0.010755   
    566. D(H  38,C  34,C  27,C  29)    -57.9718         0.010755   
    567. D(H  40,C  34,C  27,C  31)     63.8129         0.010755   
    568. D(H  38,C  34,C  27,C  24)     61.2502         0.010755   
    569. D(C  45,C  43,C  42,C  50)   -179.6213         0.026336   
    570. D(C  45,C  43,C  42,C  48)     -0.1508         0.026336   
    571. D(H  44,C  43,C  42,C  50)      0.4537         0.026336   
    572. D(H  44,C  43,C  42,C  48)    179.9243         0.026336   
    573. D(C  47,C  45,C  43,H  44)   -179.8159         0.029596   
    574. D(C  47,C  45,C  43,C  42)      0.2579         0.029596   
    575. D(H  46,C  45,C  43,H  44)     -0.5202         0.029596   
    576. D(H  46,C  45,C  43,C  42)    179.5535         0.029596   
    577. D(C  49,C  47,C  45,C  43)     -0.1540         0.026474   
    578. D(C  13,C  47,C  45,H  46)      2.9352         0.026474   
    579. D(C  13,C  47,C  45,C  43)   -177.7668         0.026474   
    580. D(C  49,C  47,C  13,C  14)     60.5224         0.014710   
    581. D(C  49,C  47,C  13,C   0)   -120.3784         0.014710   
    582. D(C  45,C  47,C  13,C  14)   -121.9656         0.014710   
    583. D(C  49,C  47,C  45,H  46)   -179.4520         0.026474   
    584. D(C  45,C  47,C  13,C   0)     57.1336         0.014710   
    585. D(C  49,C  48,C  42,C  50)    179.3948         0.027080   
    586. D(C  49,C  48,C  42,C  43)     -0.0521         0.027080   
    587. D(H  12,C  48,C  42,C  50)     -0.8200         0.027080   
    588. D(H  12,C  48,C  42,C  43)    179.7331         0.027080   
    589. D(C  47,C  49,C  48,C  42)      0.1511         0.028244   
    590. D(C  47,C  49,C  48,H  12)   -179.6396         0.028244   
    591. D(H  41,C  49,C  48,C  42)    178.7936         0.028244   
    592. D(H  41,C  49,C  48,H  12)     -0.9970         0.028244   
    593. D(C  48,C  49,C  47,C  45)     -0.0466         0.027074   
    594. D(C  48,C  49,C  47,C  13)    177.5088         0.027074   
    595. D(H  41,C  49,C  47,C  45)   -178.6912         0.027074   
    596. D(H  41,C  49,C  47,C  13)     -1.1358         0.027074   
    597. D(C  56,C  50,C  42,C  48)      1.1931         0.011134   
    598. D(C  56,C  50,C  42,C  43)   -179.3700         0.011134   
    599. D(C  53,C  50,C  42,C  48)   -118.5109         0.011134   
    600. D(C  53,C  50,C  42,C  43)     60.9259         0.011134   
    601. D(C  51,C  50,C  42,C  48)    121.9286         0.011134   
    602. D(C  51,C  50,C  42,C  43)    -58.6346         0.011134   
    603. D(H  55,C  51,C  50,C  56)    -56.3142         0.010727   
    604. D(H  55,C  51,C  50,C  53)     61.3433         0.010727   
    605. D(H  55,C  51,C  50,C  42)   -179.6193         0.010727   
    606. D(H  54,C  51,C  50,C  56)   -176.2703         0.010727   
    607. D(H  54,C  51,C  50,C  53)    -58.6129         0.010727   
    608. D(H  54,C  51,C  50,C  42)     60.4245         0.010727   
    609. D(H  52,C  51,C  50,C  56)     63.7033         0.010727   
    610. D(H  52,C  51,C  50,C  53)   -178.6393         0.010727   
    611. D(H  52,C  51,C  50,C  42)    -59.6019         0.010727   
    612. D(H  59,C  53,C  50,C  51)    -61.5898         0.010692   
    613. D(H  59,C  53,C  50,C  42)    179.0820         0.010692   
    614. D(H  58,C  53,C  50,C  56)    -63.2863         0.010692   
    615. D(H  58,C  53,C  50,C  51)    178.7061         0.010692   
    616. D(H  58,C  53,C  50,C  42)     59.3780         0.010692   
    617. D(H  57,C  53,C  50,C  51)     58.5268         0.010692   
    618. D(H  57,C  53,C  50,C  42)    -60.8013         0.010692   
    619. D(H  59,C  53,C  50,C  56)     56.4177         0.010692   
    620. D(H  57,C  53,C  50,C  56)    176.5344         0.010692   
    621. D(H  62,C  56,C  50,C  53)     58.5383         0.011046   
    622. D(H  62,C  56,C  50,C  42)    -61.6245         0.011046   
    623. D(H  62,C  56,C  50,C  51)    177.2368         0.011046   
    624. D(H  61,C  56,C  50,C  53)    -60.5096         0.011046   
    625. D(H  61,C  56,C  50,C  51)     58.1888         0.011046   
    626. D(H  61,C  56,C  50,C  42)    179.3275         0.011046   
    627. D(H  60,C  56,C  50,C  53)   -179.8215         0.011046   
    628. D(H  60,C  56,C  50,C  42)     60.0156         0.011046   
    629. D(H  60,C  56,C  50,C  51)    -61.1231         0.011046   
    630. D(H  67,C  63,C   9,C  68)     57.1153         0.011078   
    631. D(H  67,C  63,C   9,C  65)    -61.6812         0.011078   
    632. D(H  67,C  63,C   9,C   8)    178.0609         0.011078   
    633. D(H  66,C  63,C   9,C  68)    -62.2170         0.011078   
    634. D(H  66,C  63,C   9,C  65)    178.9864         0.011078   
    635. D(H  66,C  63,C   9,C   8)     58.7285         0.011078   
    636. D(H  64,C  63,C   9,C  68)    175.9139         0.011078   
    637. D(H  64,C  63,C   9,C  65)     57.1174         0.011078   
    638. D(H  64,C  63,C   9,C   8)    -63.1406         0.011078   
    639. D(H  71,C  65,C   9,C  68)     59.5784         0.010714   
    640. D(H  71,C  65,C   9,C  63)    177.0426         0.010714   
    641. D(H  71,C  65,C   9,C   8)    -60.0394         0.010714   
    642. D(H  70,C  65,C   9,C  68)    -60.6297         0.010714   
    643. D(H  70,C  65,C   9,C  63)     56.8346         0.010714   
    644. D(H  70,C  65,C   9,C   8)    179.7526         0.010714   
    645. D(H  69,C  65,C   9,C  68)    179.6067         0.010714   
    646. D(H  69,C  65,C   9,C   8)     59.9889         0.010714   
    647. D(H  69,C  65,C   9,C  63)    -62.9290         0.010714   
    648. D(H  74,C  68,C   9,C  63)    -55.0990         0.010722   
    649. D(H  74,C  68,C   9,C   8)   -178.2306         0.010722   
    650. D(H  73,C  68,C   9,C  65)    -57.3882         0.010722   
    651. D(H  73,C  68,C   9,C  63)   -175.1145         0.010722   
    652. D(H  73,C  68,C   9,C   8)     61.7539         0.010722   
    653. D(H  72,C  68,C   9,C  65)   -177.7736         0.010722   
    654. D(H  72,C  68,C   9,C  63)     64.5000         0.010722   
    655. D(H  74,C  68,C   9,C  65)     62.6273         0.010722   
    656. D(H  72,C  68,C   9,C   8)    -58.6316         0.010722   
    657. D(C  98,C  78,C   0,C  20)   -146.6043         0.001500   
    658. D(C  98,C  78,C   0,C  13)     32.0665         0.001500   
    659. D(C  91,C  78,C   0,C  20)     38.6357         0.001500   
    660. D(C  91,C  78,C   0,C  13)   -142.6935         0.001500   
    661. D(C  82,C  80,C  79,C  96)    177.9657         0.021326   
    662. D(C  82,C  80,C  79,C  88)     -3.5473         0.021326   
    663. D(C  81,C  80,C  79,C  96)     -3.3638         0.021326   
    664. D(C  81,C  80,C  79,C  88)    175.1231         0.021326   
    665. D(H 100,C  81,C  80,C  82)     -0.7528         0.025345   
    666. D(H 100,C  81,C  80,C  79)   -179.3813         0.025345   
    667. D(C  95,C  81,C  80,C  82)    177.6950         0.025345   
    668. D(C  95,C  81,C  80,C  79)     -0.9336         0.025345   
    669. D(C  84,C  82,C  80,C  81)   -176.3041         0.022720   
    670. D(C  84,C  82,C  80,C  79)      2.3521         0.022720   
    671. D(H  83,C  82,C  80,C  81)      2.9101         0.022720   
    672. D(H  83,C  82,C  80,C  79)   -178.4337         0.022720   
    673. D(C  86,C  84,C  82,H  83)   -178.4914         0.032980   
    674. D(C  86,C  84,C  82,C  80)      0.7080         0.032980   
    675. D(H  85,C  84,C  82,H  83)      0.6211         0.032980   
    676. D(H  85,C  84,C  82,C  80)    179.8206         0.032980   
    677. D(C  88,C  86,C  84,H  85)    178.4084         0.023622   
    678. D(C  88,C  86,C  84,C  82)     -2.4866         0.023622   
    679. D(C  87,C  86,C  84,H  85)     -1.8790         0.023622   
    680. D(C  87,C  86,C  84,C  82)    177.2259         0.023622   
    681. D(C 146,C  87,C  86,C  88)    122.8657         0.011202   
    682. D(C 146,C  87,C  86,C  84)    -56.8315         0.011202   
    683. D(C 143,C  87,C  86,C  88)   -117.3855         0.011202   
    684. D(C 143,C  87,C  86,C  84)     62.9174         0.011202   
    685. D(C 141,C  87,C  86,C  88)      3.1560         0.011202   
    686. D(C 141,C  87,C  86,C  84)   -176.5412         0.011202   
    687. D(H  89,C  88,C  86,C  87)      0.0839         0.029319   
    688. D(H  89,C  88,C  86,C  84)    179.7845         0.029319   
    689. D(C  79,C  88,C  86,C  87)   -178.5118         0.029319   
    690. D(C  79,C  88,C  86,C  84)      1.1887         0.029319   
    691. D(H  89,C  88,C  79,C  96)      1.6411         0.024964   
    692. D(H  89,C  88,C  79,C  80)   -176.7831         0.024964   
    693. D(C  86,C  88,C  79,C  96)   -179.7471         0.024964   
    694. D(C  86,C  88,C  79,C  80)      1.8286         0.024964   
    695. D(C 125,C  91,C  78,C  98)   -177.8717         0.025700   
    696. D(C 125,C  91,C  78,C  97)     -1.1311         0.025700   
    697. D(C  92,C  91,C  78,C  98)     -0.7209         0.025700   
    698. D(C  92,C  91,C  78,C  97)    176.0197         0.025700   
    699. D(C  94,C  92,C  91,C 125)    176.4624         0.022167   
    700. D(C  94,C  92,C  91,C  78)     -0.5470         0.022167   
    701. D(C  93,C  92,C  91,C 125)     -4.8609         0.022167   
    702. D(C  93,C  92,C  91,C  78)    178.1298         0.022167   
    703. D(C 102,C  93,C  92,C  94)     -3.9656         0.023787   
    704. D(C 102,C  93,C  92,C  91)    177.3533         0.023787   
    705. D(H 104,C  93,C  92,C  94)    175.6715         0.023787   
    706. D(H 104,C  93,C  92,C  91)     -3.0097         0.023787   
    707. D(C  96,C  94,C  92,C  93)   -176.2487         0.021396   
    708. D(C  96,C  94,C  92,C  91)      2.4581         0.021396   
    709. D(C  95,C  94,C  92,C  93)      3.9984         0.021396   
    710. D(C  95,C  94,C  92,C  91)   -177.2948         0.021396   
    711. D(C 103,C  95,C  94,C  96)    178.9804         0.020854   
    712. D(C 103,C  95,C  94,C  92)     -1.2658         0.020854   
    713. D(C  81,C  95,C  94,C  96)     -1.2826         0.020854   
    714. D(C  81,C  95,C  94,C  92)    178.4712         0.020854   
    715. D(C 103,C  95,C  81,H 100)      1.4680         0.025503   
    716. D(C 103,C  95,C  81,C  80)   -176.9765         0.025503   
    717. D(C  94,C  95,C  81,H 100)   -178.2651         0.025503   
    718. D(C  94,C  95,C  81,C  80)      3.2904         0.025503   
    719. D(C  98,C  96,C  94,C  95)    176.7159         0.022129   
    720. D(C  98,C  96,C  94,C  92)     -3.0314         0.022129   
    721. D(C  79,C  96,C  94,C  95)     -2.9709         0.022129   
    722. D(C  79,C  96,C  94,C  92)    177.2818         0.022129   
    723. D(C  98,C  96,C  79,C  88)      7.1601         0.018038   
    724. D(C  98,C  96,C  79,C  80)   -174.4183         0.018038   
    725. D(C  94,C  96,C  79,C  88)   -173.1684         0.018038   
    726. D(C  94,C  96,C  79,C  80)      5.2532         0.018038   
    727. D(H  99,C  98,C  96,C  94)   -176.5272         0.026057   
    728. D(H  99,C  98,C  96,C  79)      3.1486         0.026057   
    729. D(C  78,C  98,C  96,C  94)      1.7595         0.026057   
    730. D(C  78,C  98,C  96,C  79)   -178.5647         0.026057   
    731. D(H  99,C  98,C  78,C  97)      1.6463         0.026294   
    732. D(H  99,C  98,C  78,C  91)    178.4555         0.026294   
    733. D(C  96,C  98,C  78,C  97)   -176.7089         0.026294   
    734. D(C  96,C  98,C  78,C  91)      0.1003         0.026294   
    735. D(C 105,C 102,C  93,H 104)      1.3028         0.027290   
    736. D(C 105,C 102,C  93,C  92)   -179.0690         0.027290   
    737. D(C 103,C 102,C  93,H 104)   -178.6594         0.027290   
    738. D(C 103,C 102,C  93,C  92)      0.9688         0.027290   
    739. D(H 101,C 103,C 102,C 105)      0.8626         0.028341   
    740. D(H 101,C 103,C 102,C  93)   -179.1769         0.028341   
    741. D(C  95,C 103,C 102,C 105)   -178.0271         0.028341   
    742. D(C  95,C 103,C 102,C  93)      1.9335         0.028341   
    743. D(C 102,C 103,C  95,C  94)     -1.7631         0.023381   
    744. D(C 102,C 103,C  95,C  81)    178.5058         0.023381   
    745. D(H 101,C 103,C  95,C  94)    179.3031         0.023381   
    746. D(H 101,C 103,C  95,C  81)     -0.4280         0.023381   
    747. D(C 112,C 105,C 102,C 103)   -121.6388         0.011057   
    748. D(C 112,C 105,C 102,C  93)     58.4009         0.011057   
    749. D(C 109,C 105,C 102,C 103)    118.5767         0.011057   
    750. D(C 109,C 105,C 102,C  93)    -61.3835         0.011057   
    751. D(C 107,C 105,C 102,C 103)     -1.5151         0.011057   
    752. D(C 107,C 105,C 102,C  93)    178.5246         0.011057   
    753. D(H 111,C 107,C 105,C 112)    -59.0707         0.011077   
    754. D(H 111,C 107,C 105,C 109)     59.8365         0.011077   
    755. D(H 111,C 107,C 105,C 102)   -179.7157         0.011077   
    756. D(H 110,C 107,C 105,C 112)   -178.1850         0.011077   
    757. D(H 110,C 107,C 105,C 109)    -59.2778         0.011077   
    758. D(H 110,C 107,C 105,C 102)     61.1701         0.011077   
    759. D(H 108,C 107,C 105,C 112)     60.0806         0.011077   
    760. D(H 108,C 107,C 105,C 109)    178.9877         0.011077   
    761. D(H 108,C 107,C 105,C 102)    -60.5644         0.011077   
    762. D(H 115,C 109,C 105,C 112)     61.2441         0.010770   
    763. D(H 115,C 109,C 105,C 107)    -56.6234         0.010770   
    764. D(H 115,C 109,C 105,C 102)   -179.4233         0.010770   
    765. D(H 114,C 109,C 105,C 112)    -58.9239         0.010770   
    766. D(H 114,C 109,C 105,C 107)   -176.7914         0.010770   
    767. D(H 114,C 109,C 105,C 102)     60.4088         0.010770   
    768. D(H 113,C 109,C 105,C 112)   -179.0613         0.010770   
    769. D(H 113,C 109,C 105,C 107)     63.0712         0.010770   
    770. D(H 113,C 109,C 105,C 102)    -59.7286         0.010770   
    771. D(H 118,C 112,C 105,C 109)     57.7198         0.010750   
    772. D(H 118,C 112,C 105,C 107)    175.6401         0.010750   
    773. D(H 118,C 112,C 105,C 102)    -61.4881         0.010750   
    774. D(H 117,C 112,C 105,C 109)    -62.3438         0.010750   
    775. D(H 117,C 112,C 105,C 107)     55.5765         0.010750   
    776. D(H 117,C 112,C 105,C 102)    178.4483         0.010750   
    777. D(H 116,C 112,C 105,C 109)    178.0222         0.010750   
    778. D(H 116,C 112,C 105,C 107)    -64.0575         0.010750   
    779. D(H 116,C 112,C 105,C 102)     58.8143         0.010750   
    780. D(C 123,C 121,C 120,C 128)    177.5363         0.027112   
    781. D(C 123,C 121,C 120,C 126)     -0.9234         0.027112   
    782. D(H 122,C 121,C 120,C 128)     -1.6937         0.027112   
    783. D(H 122,C 121,C 120,C 126)    179.8466         0.027112   
    784. D(C 125,C 123,C 121,H 122)    179.2918         0.028498   
    785. D(C 125,C 123,C 121,C 120)      0.0423         0.028498   
    786. D(H 124,C 123,C 121,H 122)      1.3114         0.028498   
    787. D(H 124,C 123,C 121,C 120)   -177.9380         0.028498   
    788. D(C 127,C 125,C 123,H 124)    178.7885         0.026936   
    789. D(C 127,C 125,C 123,C 121)      0.8050         0.026936   
    790. D(C  91,C 125,C 123,H 124)      2.5740         0.026936   
    791. D(C  91,C 125,C 123,C 121)   -175.4095         0.026936   
    792. D(C 127,C 125,C  91,C  92)    127.6269         0.014888   
    793. D(C 127,C 125,C  91,C  78)    -55.3486         0.014888   
    794. D(C 123,C 125,C  91,C  92)    -56.2513         0.014888   
    795. D(C 123,C 125,C  91,C  78)    120.7733         0.014888   
    796. D(C 127,C 126,C 120,C 128)   -177.5413         0.026346   
    797. D(C 127,C 126,C 120,C 121)      0.9744         0.026346   
    798. D(H  90,C 126,C 120,C 128)      2.2525         0.026346   
    799. D(H  90,C 126,C 120,C 121)   -179.2319         0.026346   
    800. D(C 125,C 127,C 126,C 120)     -0.1408         0.029501   
    801. D(C 125,C 127,C 126,H  90)   -179.9382         0.029501   
    802. D(H 119,C 127,C 126,C 120)   -179.7700         0.029501   
    803. D(H 119,C 127,C 126,H  90)      0.4326         0.029501   
    804. D(C 126,C 127,C 125,C 123)     -0.7557         0.026484   
    805. D(C 126,C 127,C 125,C  91)    175.5006         0.026484   
    806. D(H 119,C 127,C 125,C 123)    178.8750         0.026484   
    807. D(H 119,C 127,C 125,C  91)     -4.8687         0.026484   
    808. D(C 134,C 128,C 120,C 126)     63.3900         0.011149   
    809. D(C 134,C 128,C 120,C 121)   -115.0357         0.011149   
    810. D(C 131,C 128,C 120,C 126)    -56.7240         0.011149   
    811. D(C 131,C 128,C 120,C 121)    124.8504         0.011149   
    812. D(C 129,C 128,C 120,C 126)   -176.9570         0.011149   
    813. D(C 129,C 128,C 120,C 121)      4.6174         0.011149   
    814. D(H 133,C 129,C 128,C 134)    -61.3695         0.011040   
    815. D(H 133,C 129,C 128,C 131)     57.5849         0.011040   
    816. D(H 133,C 129,C 128,C 120)    178.8436         0.011040   
    817. D(H 132,C 129,C 128,C 134)    179.4550         0.011040   
    818. D(H 132,C 129,C 128,C 131)    -61.5906         0.011040   
    819. D(H 132,C 129,C 128,C 120)     59.6681         0.011040   
    820. D(H 130,C 129,C 128,C 134)     57.6904         0.011040   
    821. D(H 130,C 129,C 128,C 131)    176.6449         0.011040   
    822. D(H 130,C 129,C 128,C 120)    -62.0964         0.011040   
    823. D(H 137,C 131,C 128,C 134)     61.0749         0.010749   
    824. D(H 137,C 131,C 128,C 129)    -56.6877         0.010749   
    825. D(H 137,C 131,C 128,C 120)   -179.8085         0.010749   
    826. D(H 136,C 131,C 128,C 134)    -59.0728         0.010749   
    827. D(H 136,C 131,C 128,C 129)   -176.8354         0.010749   
    828. D(H 136,C 131,C 128,C 120)     60.0438         0.010749   
    829. D(H 135,C 131,C 128,C 134)   -179.3411         0.010749   
    830. D(H 135,C 131,C 128,C 129)     62.8963         0.010749   
    831. D(H 135,C 131,C 128,C 120)    -60.2245         0.010749   
    832. D(H 140,C 134,C 128,C 129)    178.2574         0.010700   
[...]
 C      9   7   5     2.626612798333   117.61555951   359.30622336
 H     11   9   7     2.044077387969   118.66781481   179.75055884
 H      1   2   3    10.685492923345   131.76588220    34.47788103
 C      1   2   3     2.665516506874   102.42499260     4.20872489
 C     14   1   2     2.709424354400   118.47025143   356.10277932
 C     15  14   1     2.680403387760   121.69597792   185.36474337
 C     15  14   1     2.711491903602   119.80152364     3.55699480
 C      4   3   2     2.655656221197   122.02706413   359.14071432
 C     17  15  14     2.694126141037   120.81420159   358.92645562
 C      1   2   3     2.701230596501   135.72300816   180.91316014
 C     19  17  15     2.651251620319   117.76654951   357.83643039
 H     21  19  17     2.045980480873   120.73467619   182.35406902
 H      4   3   2     2.055237956157   118.97602708   179.49102438
 H     18   4   3     4.053347105848    94.58879852   180.12745654
 C     16  15  14     2.650150082502   123.05446424   179.91727889
 C     24  18   4     2.049027022521    36.01947143   180.21477838
 H     16  15  14     2.045835507409   117.60951392     0.96553500
 C     25  16  15     2.913119602809   119.33988419   180.68577011
 H     13   1   2    11.360132269131   105.04961788   148.34314578
 C     28  25  16     2.924996337196   109.16894081    61.72695177
 H     30  28  25     2.067664218577   111.85179074   300.39675509
 C     28  25  16     2.911889303355   112.34204828   181.75915738
 H     30  28  25     2.069836319037   110.87835092    60.67835411
 H     30  28  25     2.071905946071   110.39653871   180.42115055
 C     28  25  16     2.924438605629   109.58344019   301.93372942
 H     32  28  25     2.069801112372   111.88803551   298.60593665
 H     32  28  25     2.069940539929   111.82358671    60.20950878
 H     32  28  25     2.069531900971   109.69387976   179.43263164
 H     35  28  25     2.067466855586   111.95047650    59.83557430
 H     35  28  25     2.071543710087   110.29888922   179.74078394
 H     35  28  25     2.070036517508   110.92716541   299.40364886
 H     13   1   2     4.614765370950    31.15051767     9.89404075
 C     13   1   2     4.086034182637    66.82120100   213.69895969
 C     43  13   1     2.657088592462   142.54137188    11.63204061
 H     44  43  13     2.053133802060   119.81568127   180.16360754
 C     44  43  13     2.630320990120   121.89398871     0.30685172
 H     46  44  43     2.051636687933   119.61700977   179.98896723
 C     46  44  43     2.654890071217   120.97430660     0.47651982
 C     13   1   2     2.049426790558    34.03827042   226.18071968
 C     42  13   1     2.053314150813    60.83268637   337.72324363
 C     43  13   1     2.909958602998    97.38102494   191.56850368
 C     51  43  13     2.924509850262   109.71934801   121.97732342
 H     52  51  43     2.070374655410   111.03996409   298.81715608
 C     51  43  13     2.926162369285   109.17836665   241.64195357
 H     52  51  43     2.067320698054   112.06079277    59.14362671
 H     52  51  43     2.071584869978   110.31886633   179.07236345
 C     51  43  13     2.912361298895   112.37398749     1.70973557
 H     54  51  43     2.068035306637   111.69266448   300.03939404
 H     54  51  43     2.069786562258   110.93487808    60.24392883
 H     54  51  43     2.071739538420   110.44938570   180.10238835
 H     57  51  43     2.070010382170   111.80934890    60.08120301
 H     57  51  43     2.069538351355   109.67870118   179.28602043
 H     57  51  43     2.069969507074   111.99922246   298.47145483
 C     10   9   7     2.911383348964   112.57906842   180.30791546
 H     64  10   9     2.070321407217   111.75663028   299.21275573
 C     10   9   7     2.926509884243   109.45916664    60.02495274
 H     64  10   9     2.069628491595   111.91526567    60.77984990
 H     64  10   9     2.069218982010   109.70381955   180.10341235
 C     10   9   7     2.926567334256   109.30268406   300.33630406
 H     66  10   9     2.069719850408   110.93306067    60.80759760
 H     66  10   9     2.071559184167   110.33207130   180.58183383
 H     66  10   9     2.067954058968   111.91741713   300.45158827
 H     69  10   9     2.069565247424   110.89475221   299.35005024
 H     69  10   9     2.067888305969   111.97989407    59.73848402
 H     69  10   9     2.071739407139   110.37072364   179.58526538
 H     29  13   1     8.215960126495    95.67445712   298.86145959
 H     76  29  13     3.342197996547    60.49127910   193.53047432
 H     77  76  29     3.341012711875    60.21651116    69.88750109
 C     20   1   2     4.995591255259   177.82680905   356.60534286
 C     79  20   1     7.193300448858   134.76522736   228.47964385
 C     80  79  20     2.708303752499   136.60308381   186.38776329
 C     81  80  79     2.658401154777   120.23118006   358.81059312
 C     81  80  79     2.691656459868   118.31321522   179.35475145
 H     83  81  80     2.054881274758   118.46140748   180.33217177
 C     83  81  80     2.595487383572   121.32662877     0.68765397
 H     85  83  81     2.052341232877   118.94962742   179.67489398
 C     85  83  81     2.688727778324   121.32059322     0.05332036
 C     87  85  83     2.906472730122   119.43698180   178.86991327
 C     87  85  83     2.626768088068   117.60306549   359.38367169
 H     89  87  85     2.043983832907   118.63203610   179.77736860
 H     65  64  10     5.146395695060   145.53442311   169.45845328
 C     79  20   1     2.663260710687   122.76282480    52.89679111
 C     92  79  20     2.704920984400   118.71505894   176.11345118
 C     93  92  79     2.680759360061   121.66149873   179.03029132
 C     93  92  79     2.711426836532   119.71220993   359.89408067
 C     82  81  80     2.655662026477   122.01603147   359.47914125
 C     95  93  92     2.694347128258   120.81347266     1.04787604
 C     20   1   2     2.297704954471   175.82607643     4.12100113
 C     97  95  93     2.651528352926   117.85724488   358.61927944
 H     99  97  95     2.045866018683   120.76098449   181.82657583
 H     82  81  80     2.055244742952   118.96138662   180.21028530
 H     96  82  81     4.053078049991    94.62987067   180.88594848
 C     94  93  92     2.649731120222   122.95906145   178.69027531
 C    102  96  82     2.049094784712    36.04032060   179.46631587
 H     94  93  92     2.046383446889   117.57721020   358.47039029
 C    103  94  93     2.912667105580   119.34157489   180.33791181
 H     29  13   1     3.341826946141   153.10643132   272.83034599
 C    106 103  94     2.911848063870   112.37053277   177.56161057
 H    108 106 103     2.070035906662   111.76846575   300.05640125
 C    106 103  94     2.924715570704   109.19410324   297.68990098
 H    108 106 103     2.069847560832   111.99181232    61.68299001
 H    108 106 103     2.069575476648   109.65013744   180.84781329
 C    106 103  94     2.925211962489   109.62260981    57.51777125
 H    110 106 103     2.069843278500   110.87649658   299.52954066
 H    110 106 103     2.067689438763   111.78311019    59.80411212
 H    110 106 103     2.071828430937   110.38235992   179.80482808
 H    113 106 103     2.070063519407   110.90707161    60.66091830
 H    113 106 103     2.071539378070   110.23587076   180.26243314
 H    113 106 103     2.067481573397   112.08067324   300.15820041
 H     91  65  64     4.624507634452   112.01031289   317.65661032
 C     91  65  64     4.087693651405   141.58086404   184.74011687
 C    121  91  65     2.648685832822   142.73920123   137.65564969
 H    122 121  91     2.048998614336   120.23073905   179.99815410
 C    122 121  91     2.639828089503   121.55543242   359.63283314
 H    124 122 121     2.053489533052   119.48073098   180.58049280
 C    124 122 121     2.647799956211   121.17346812   359.65711414
 C     91  65  64     2.053650220884   154.54596449   248.42680531
 C    120  91  65     2.052904783356    60.56389372   207.14806602
 C    121  91  65     2.909991807117    94.21718709   317.30290259
 C    129 121  91     2.912132295072   112.31349979   179.75049976
 H    130 129 121     2.069684522411   111.80096467   299.06020889
 C    129 121  91     2.924750390553   109.39158508   299.89841721
 H    130 129 121     2.069814714868   111.91843092    60.67546161
 H    130 129 121     2.069542290575   109.69126433   179.89995551
 C    129 121  91     2.925196675495   109.48014886    59.73646613
 H    132 129 121     2.069859619095   110.99463797   299.25376637
 H    132 129 121     2.068098117358   111.85935243    59.55682327
 H    132 129 121     2.071717799883   110.43770648   179.44857736
 H    135 129 121     2.069122874761   110.96192776    60.59795038
 H    135 129 121     2.071594948690   110.37086417   180.43094457
 H    135 129 121     2.067908829921   111.95019126   300.36099355
 C     88  87  85     2.911768220919   112.57484611   180.18115196
 H    142  88  87     2.070327740061   111.94129822   299.30223409
 C    107  29  13     2.068014696798    36.14933612   357.92017384
 H    142  88  87     2.069653643755   111.91525016    60.91381696
 H    142  88  87     2.069507418876   109.66406443   180.10414403
 C     77  76  29     2.068008223488    36.13773297    32.29025114
 H    144 107  29     2.071561132635   107.65008080   243.64607118

MPIWRAPPER IN -np 8 /gpfs/research/software/orca/orca_5_0_1_linux_x86-64_openmpi411/orca_gtoint_mpi diradical_alkyne_b3lyp_631gdp_opt_freq_normal_singlet.int.tmp diradical_alkyne_b3lyp_631gdp_opt_freq_normal_singlet
MPIWRAPPER OUT -n 8 /gpfs/research/software/orca/orca_5_0_1_linux_x86-64_openmpi411/orca_gtoint_mpi diradical_alkyne_b3lyp_631gdp_opt_freq_normal_singlet.int.tmp diradical_alkyne_b3lyp_631gdp_opt_freq_normal_singlet


           ************************************************************
           *        Program running with 8 parallel MPI-processes     *
           *              working on a common directory               *
           ************************************************************
------------------------------------------------------------------------------
                   ___                                                        
                  /   \      - P O W E R E D   B Y -                         
                 /     \                                                     
                 |  |  |   _    _      __       _____    __    __             
                 |  |  |  | |  | |    /  \     |  _  \  |  |  /  |          
                  \  \/   | |  | |   /    \    | | | |  |  | /  /          
                 / \  \   | |__| |  /  /\  \   | |_| |  |  |/  /          
                |  |  |   |  __  | /  /__\  \  |    /   |      \           
                |  |  |   | |  | | |   __   |  |    \   |  |\   \          
                \     /   | |  | | |  |  |  |  | |\  \  |  | \   \       
                 \___/    |_|  |_| |__|  |__|  |_| \__\ |__|  \__/        
                                                                              
                      - O R C A' S   B I G   F R I E N D -                    
                                      &                                       
                       - I N T E G R A L  F E E D E R -                       
                                                                              
 v1 FN, 2020, v2 2021                                                         
------------------------------------------------------------------------------


Reading SHARK input file diradical_alkyne_b3lyp_631gdp_opt_freq_normal_singlet.SHARKINP.tmp ... ok
----------------------
SHARK INTEGRAL PACKAGE
----------------------

Number of atoms                             ...    148
Number of basis functions                   ...   1388
Number of shells                            ...    660
Maximum angular momentum                    ...      2
Integral batch strategy                     ... SHARK/LIBINT Hybrid
RI-J (if used) integral strategy            ... SPLIT-RIJ (Revised 2003 algorithm where possible)
Printlevel                                  ...      1
Contraction scheme used                     ... SEGMENTED contraction
Coulomb Range Separation                    ... NOT USED
Exchange Range Separation                   ... NOT USED
Finite Nucleus Model                        ... NOT USED
Auxiliary Coulomb fitting basis             ... AVAILABLE
   # of basis functions in Aux-J            ...   4364
   # of shells in Aux-J                     ...   1460
   Maximum angular momentum in Aux-J        ...      4
Auxiliary J/K fitting basis                 ... NOT available
Auxiliary Correlation fitting basis         ... NOT available
Auxiliary 'external' fitting basis          ... NOT available
Integral threshold                          ...     2.500000e-11
Primitive cut-off                           ...     2.500000e-12
Primitive pair pre-selection threshold      ...     2.500000e-12

Calculating pre-screening integrals         ... done (  2.6 sec) Dimension = 660
Organizing shell pair data                  ... done (  0.8 sec)
Shell pair information
Total number of shell pairs                 ...    218130
Shell pairs after pre-screening             ...     66802
Total number of primitive shell pairs       ...   1068270
Primitive shell pairs kept                  ...    168418
          la=0 lb=0:  20623 shell pairs
          la=1 lb=0:  25967 shell pairs
          la=1 lb=1:   8233 shell pairs
          la=2 lb=0:   6943 shell pairs
          la=2 lb=1:   4488 shell pairs
          la=2 lb=2:    548 shell pairs

Calculating one electron integrals          ... done (  0.9 sec)
Calculating RI/J V-Matrix + Cholesky decomp.... done (  4.3 sec)
Calculating Nuclear repulsion               ... done (  0.0 sec) ENN=  10811.804441758301 Eh

SHARK setup successfully completed in   8.9 seconds

Maximum memory used throughout the entire GTOINT-calculation: 152.5 MB
MPIWRAPPER IN -np 8 /gpfs/research/software/orca/orca_5_0_1_linux_x86-64_openmpi411/orca_scf_mpi diradical_alkyne_b3lyp_631gdp_opt_freq_normal_singlet.gbw b diradical_alkyne_b3lyp_631gdp_opt_freq_normal_singlet
MPIWRAPPER OUT -n 8 /gpfs/research/software/orca/orca_5_0_1_linux_x86-64_openmpi411/orca_scf_mpi diradical_alkyne_b3lyp_631gdp_opt_freq_normal_singlet.gbw b diradical_alkyne_b3lyp_631gdp_opt_freq_normal_singlet


           ************************************************************
           *        Program running with 8 parallel MPI-processes     *
           *              working on a common directory               *
           ************************************************************

Diagonalization of the overlap matrix:
Smallest eigenvalue                        ... 7.273e-05
Time for diagonalization                   ...    1.247 sec
Threshold for overlap eigenvalues          ... 1.000e-08
Number of eigenvalues below threshold      ... 0
Time for construction of square roots      ...    0.996 sec
Total time needed                          ...    2.262 sec

-------------------
DFT GRID GENERATION
-------------------

General Integration Accuracy     IntAcc      ... 4.388
Radial Grid Type                 RadialGrid  ... OptM3 with GC (2021)
Angular Grid (max. ang.)         AngularGrid ... 4 (Lebedev-302)
Angular grid pruning method      GridPruning ... 4 (adaptive)
Weight generation scheme         WeightScheme... Becke
Basis function cutoff            BFCut       ... 1.0000e-11
Integration weight cutoff        WCut        ... 1.0000e-14
Angular grids for H and He will be reduced by one unit
Partially contracted basis set               ... off
Rotationally invariant grid construction     ... off

Total number of grid points                  ...   664100
Total number of batches                      ...    10454
Average number of points per batch           ...       63
Average number of grid points per atom       ...     4487
Time for grid setup =   43.294 sec

--------------------
COSX GRID GENERATION
--------------------

GRIDX 1
-------
General Integration Accuracy     IntAcc      ... 3.816
Radial Grid Type                 RadialGrid  ... OptM3 with GC (2021)
Angular Grid (max. ang.)         AngularGrid ... 1 (Lebedev-50)
Angular grid pruning method      GridPruning ... 4 (adaptive)
Weight generation scheme         WeightScheme... Becke
Basis function cutoff            BFCut       ... 1.0000e-11
Integration weight cutoff        WCut        ... 1.0000e-14
Angular grids for H and He will be reduced by one unit
Partially contracted basis set               ... on
Rotationally invariant grid construction     ... off

Total number of grid points                  ...    84208
Total number of batches                      ...     1397
Average number of points per batch           ...       60
Average number of grid points per atom       ...      569
UseSFitting                                  ... on

GRIDX 2
-------
General Integration Accuracy     IntAcc      ... 4.020
Radial Grid Type                 RadialGrid  ... OptM3 with GC (2021)
Angular Grid (max. ang.)         AngularGrid ... 2 (Lebedev-110)
Angular grid pruning method      GridPruning ... 4 (adaptive)
Weight generation scheme         WeightScheme... Becke
Basis function cutoff            BFCut       ... 1.0000e-11
Integration weight cutoff        WCut        ... 1.0000e-14
Angular grids for H and He will be reduced by one unit
Partially contracted basis set               ... on
Rotationally invariant grid construction     ... off

Total number of grid points                  ...   176682
Total number of batches                      ...     2825
Average number of points per batch           ...       62
Average number of grid points per atom       ...     1194
UseSFitting                                  ... on

GRIDX 3
-------
General Integration Accuracy     IntAcc      ... 4.338
Radial Grid Type                 RadialGrid  ... OptM3 with GC (2021)
Angular Grid (max. ang.)         AngularGrid ... 3 (Lebedev-194)
Angular grid pruning method      GridPruning ... 4 (adaptive)
Weight generation scheme         WeightScheme... Becke
Basis function cutoff            BFCut       ... 1.0000e-11
Integration weight cutoff        WCut        ... 1.0000e-14
Angular grids for H and He will be reduced by one unit
Partially contracted basis set               ... on
Rotationally invariant grid construction     ... off

Total number of grid points                  ...   382380
Total number of batches                      ...     6044
Average number of points per batch           ...       63
Average number of grid points per atom       ...     2584
UseSFitting                                  ... on

Time for X-Grid setup             =   51.445 sec

--------------
SCF ITERATIONS
--------------
ITER       Energy         Delta-E        Max-DP      RMS-DP      [F,P]     Damp
               ***  Starting incremental Fock matrix formation  ***
                      *** Initiating the SOSCF procedure ***
                      *** Re-Reading the Fockian *** 
                      *** Removing any level shift *** 
ITER      Energy       Delta-E        Grad      Rot      Max-DP    RMS-DP
  0  -2787.66225087 -2787.6622508714  0.001273  0.001273  0.003475  0.000040
               *** Restarting incremental Fock matrix formation ***
  1  -2787.66374057  -0.0014896945  0.000567  0.001235  0.001545  0.000019
  2  -2787.66389669  -0.0001561232  0.000186  0.004120  0.001107  0.000007
  3  -2787.66388354   0.0000131482  0.001213  0.004885  0.000861  0.000006
  4  -2787.66389626  -0.0000127143  0.000427  0.001934  0.001124  0.000007
  5  -2787.66388541   0.0000108436  0.000316  0.000661  0.000924  0.000005
  6  -2787.66389973  -0.0000143182  0.000058  0.000359  0.000280  0.000002
  7  -2787.66389861   0.0000011221  0.000103  0.000292  0.000222  0.000002
  8  -2787.66390004  -0.0000014343  0.000018  0.000144  0.000092  0.000001
  9  -2787.66389991   0.0000001271  0.000034  0.000094  0.000068  0.000001
