      -----------------------------------------------------------      
     |                   =====================                   |     
     |                           x T B                           |     
     |                   =====================                   |     
     |                         S. Grimme                         |     
     |          Mulliken Center for Theoretical Chemistry        |     
     |                    University of Bonn                     |     
      -----------------------------------------------------------      

   * xtb version 6.6.1 (8d0f1dd) compiled by 'conda@1efc2f54142f' on 2023-08-01

   xtb is free software: you can redistribute it and/or modify it under
   the terms of the GNU Lesser General Public License as published by
   the Free Software Foundation, either version 3 of the License, or
   (at your option) any later version.
   
   xtb is distributed in the hope that it will be useful,
   but WITHOUT ANY WARRANTY; without even the implied warranty of
   MERCHANTABILITY or FITNESS FOR A PARTICULAR PURPOSE.  See the
   GNU Lesser General Public License for more details.
   
   Cite this work as:
   * C. Bannwarth, E. Caldeweyher, S. Ehlert, A. Hansen, P. Pracht,
     J. Seibert, S. Spicher, S. Grimme, WIREs Comput. Mol. Sci., 2020, 11,
     e01493. DOI: 10.1002/wcms.1493
   
   for GFN2-xTB:
   * C. Bannwarth, S. Ehlert and S. Grimme., J. Chem. Theory Comput., 2019,
     15, 1652-1671. DOI: 10.1021/acs.jctc.8b01176
   for GFN1-xTB:
   * S. Grimme, C. Bannwarth, P. Shushkov, J. Chem. Theory Comput., 2017,
     13, 1989-2009. DOI: 10.1021/acs.jctc.7b00118
   for GFN0-xTB:
   * P. Pracht, E. Caldeweyher, S. Ehlert, S. Grimme, ChemRxiv, 2019, preprint.
     DOI: 10.26434/chemrxiv.8326202.v1
   for GFN-FF:
   * S. Spicher and S. Grimme, Angew. Chem. Int. Ed., 2020, 59, 15665-15673.
     DOI: 10.1002/anie.202004239
   
   for ALPB and GBSA implicit solvation:
   * S. Ehlert, M. Stahn, S. Spicher, S. Grimme, J. Chem. Theory Comput.,
     2021, 17, 4250-4261. DOI: 10.1021/acs.jctc.1c00471
   
   for DFT-D4:
   * E. Caldeweyher, C. Bannwarth and S. Grimme, J. Chem. Phys., 2017,
     147, 034112. DOI: 10.1063/1.4993215
   * E. Caldeweyher, S. Ehlert, A. Hansen, H. Neugebauer, S. Spicher,
     C. Bannwarth and S. Grimme, J. Chem. Phys., 2019, 150, 154122.
     DOI: 10.1063/1.5090222
   * E. Caldeweyher, J.-M. Mewes, S. Ehlert and S. Grimme, Phys. Chem. Chem. Phys.
     2020, 22, 8499-8512. DOI: 10.1039/D0CP00502A
   
   for sTDA-xTB:
   * S. Grimme and C. Bannwarth, J. Chem. Phys., 2016, 145, 054103.
     DOI: 10.1063/1.4959605
   
   in the mass-spec context:
   * V. Asgeirsson, C. Bauer and S. Grimme, Chem. Sci., 2017, 8, 4879.
     DOI: 10.1039/c7sc00601b
   * J. Koopman and S. Grimme, ACS Omega 2019, 4, 12, 15120-15133.
     DOI: 10.1021/acsomega.9b02011
   
   for metadynamics refer to:
   * S. Grimme, J. Chem. Theory Comput., 2019, 155, 2847-2862
     DOI: 10.1021/acs.jctc.9b00143
   
   for SPH calculations refer to:
   * S. Spicher and S. Grimme, J. Chem. Theory Comput., 2021, 17, 1701-1714
     DOI: 10.1021/acs.jctc.0c01306
   
   with help from (in alphabetical order)
   P. Atkinson, C. Bannwarth, F. Bohle, G. Brandenburg, E. Caldeweyher
   M. Checinski, S. Dohm, S. Ehlert, S. Ehrlich, I. Gerasimov, C. Hölzer
   A. Katbashev, J. Koopman, C. Lavigne, S. Lehtola, F. März, M. Müller,
   F. Musil, H. Neugebauer, J. Pisarek, C. Plett, P. Pracht, F. Pultar,
   J. Seibert, P. Shushkov, S. Spicher, M. Stahn, M. Steiner, T. Strunk,
   J. Stückrath, T. Rose, and J. Unsleber
   
 * started run on 2024/09/25 at 02:29:46.431     

           -------------------------------------------------
          |                Calculation Setup                |
           -------------------------------------------------

          program call               : /gpfs/home/gdb20/.conda/envs/crest3/bin/xtb lona_molecule.xyz -P 1 --gfn2 --opt
          hostname                   : hpc-d36-9-1
          coordinate file            : lona_molecule.xyz
          omp threads                :                     1

   ID    Z sym.   atoms
    1    6 C      1-13, 15-23, 25-30, 34-43, 47-50, 52-58, 61, 62, 66, 70,
                  74-77, 81, 82, 86, 90, 94, 95, 97, 98, 102, 106, 110-113,
                  117-126, 130-133, 135-141, 144, 145, 149, 153, 157-160,
                  164, 165, 169, 173, 177, 178, 180, 181, 185, 189, 193-196,
                  201-204
    2    1 H      14, 24, 31-33, 44-46, 51, 59, 60, 63-65, 67-69, 71-73,
                  78-80, 83-85, 87-89, 91-93, 96, 99-101, 103-105, 107-109,
                  114-116, 127-129, 134, 142, 143, 146-148, 150-152, 154-156,
                  161-163, 166-168, 170-172, 174-176, 179, 182-184, 186-188,
                  190-192, 197-200, 205-208

molecular fragmentation (1/2 indicates fragments):
111111111111111111111111111111111111111111111111112111111111111111111111
111111111111111111111111111111111111111111111111111111111111121111111111
1111111111111111111111111111111111111111111111111111111111111111
# atoms in fragment 1/2:   206     2
 fragment masses (1/2) :     1505.97        2.02
CMA distance (Bohr)    :   3.412
constraining FC (au)   :  0.0500

           -------------------------------------------------
          |                 G F N 2 - x T B                 |
           -------------------------------------------------

        Reference                      10.1021/acs.jctc.8b01176
      * Hamiltonian:
        H0-scaling (s, p, d)           1.850000    2.230000    2.230000
        zeta-weighting                 0.500000
      * Dispersion:
        s8                             2.700000
        a1                             0.520000
        a2                             5.000000
        s9                             5.000000
      * Repulsion:
        kExp                           1.500000    1.000000
        rExp                           1.000000
      * Coulomb:
        alpha                          2.000000
        third order                    shell-resolved
        anisotropic                    true
        a3                             3.000000
        a5                             4.000000
        cn-shift                       1.200000
        cn-exp                         4.000000
        max-rad                        5.000000


          ...................................................
          :                      SETUP                      :
          :.................................................:
          :  # basis functions                 562          :
          :  # atomic orbitals                 562          :
          :  # shells                          326          :
          :  # electrons                       562          :
          :  max. iterations                   250          :
          :  Hamiltonian                  GFN2-xTB          :
          :  restarted?                      false          :
          :  GBSA solvation                  false          :
          :  PC potential                    false          :
          :  electronic temp.          300.0000000     K    :
          :  accuracy                    1.0000000          :
          :  -> integral cutoff          0.2500000E+02      :
          :  -> integral neglect         0.1000000E-07      :
          :  -> SCF convergence          0.1000000E-05 Eh   :
          :  -> wf. convergence          0.1000000E-03 e    :
          :  Broyden damping             0.4000000          :
          ...................................................

 iter      E             dE          RMSdq      gap      omega  full diag
   1   -302.9391757 -0.302939E+03  0.389E+00    0.16       0.0  T
   2   -302.7456619  0.193514E+00  0.259E+00    0.10       1.0  T
   3   -298.8452084  0.390045E+01  0.262E+00    0.25       1.0  T
   4   -296.0135079  0.283170E+01  0.247E+00    0.06       1.0  T
   5   -302.6256772 -0.661217E+01  0.102E+00    0.24       1.0  T
   6   -303.0870707 -0.461394E+00  0.557E-01    0.35       1.0  T
   7   -303.2103528 -0.123282E+00  0.347E-01    0.14       1.0  T
   8   -303.1336438  0.767090E-01  0.412E-01    0.30       1.0  T
   9   -303.2137334 -0.800896E-01  0.308E-01    0.15       1.0  T
  10   -303.2224935 -0.876004E-02  0.202E-01    0.14       1.0  T
  11   -303.2319482 -0.945470E-02  0.186E-01    0.13       1.0  T
  12   -303.2514367 -0.194885E-01  0.394E-02    0.12       1.0  T
  13   -303.2479697  0.346699E-02  0.832E-02    0.12       1.0  T
  14   -303.2511374 -0.316770E-02  0.387E-02    0.12       1.0  T
  15   -303.2520384 -0.901049E-03  0.551E-03    0.11       1.3  T
  16   -303.2520513 -0.128343E-04  0.284E-03    0.11       2.4  T
  17   -303.2520476  0.371075E-05  0.312E-03    0.11       2.2  T
  18   -303.2520462  0.140210E-05  0.323E-03    0.11       2.1  T
  19   -303.2520524 -0.627841E-05  0.611E-04    0.11      11.4  T
  20   -303.2520523  0.164822E-06  0.721E-04    0.11       9.6  T
  21   -303.2520526 -0.301266E-06  0.903E-05    0.11      76.8  T

   *** convergence criteria satisfied after 21 iterations ***

         #    Occupation            Energy/Eh            Energy/eV
      -------------------------------------------------------------
         1        2.0000           -0.6672084             -18.1557
       ...           ...                  ...                  ...
       275        2.0000           -0.3531911              -9.6108
       276        2.0000           -0.3507618              -9.5447
       277        2.0000           -0.3448327              -9.3834
       278        2.0000           -0.3408659              -9.2754
       279        2.0000           -0.3342874              -9.0964
       280        2.0000           -0.3216567              -8.7527
       281        1.8040           -0.3003978              -8.1742 (HOMO)
       282        0.1960           -0.2961806              -8.0595 (LUMO)
       283        0.0000           -0.2825661              -7.6890
       284                         -0.2770120              -7.5379
       285                         -0.2667498              -7.2586
       286                         -0.2644314              -7.1955
       ...                                ...                  ...
       562                          1.9050928              51.8402
      -------------------------------------------------------------
                  HL-Gap            0.0042172 Eh            0.1148 eV
             Fermi-level           -0.2982892 Eh           -8.1169 eV

 SCC (total)                   0 d,  0 h,  0 min,  3.642 sec
 SCC setup                      ...        0 min,  0.011 sec (  0.303%)
 Dispersion                     ...        0 min,  0.022 sec (  0.594%)
 classical contributions        ...        0 min,  0.005 sec (  0.139%)
 integral evaluation            ...        0 min,  0.187 sec (  5.121%)
 iterations                     ...        0 min,  2.432 sec ( 66.778%)
 molecular gradient             ...        0 min,  0.975 sec ( 26.760%)
 printout                       ...        0 min,  0.011 sec (  0.304%)

         :::::::::::::::::::::::::::::::::::::::::::::::::::::
         ::                     SUMMARY                     ::
         :::::::::::::::::::::::::::::::::::::::::::::::::::::
         :: total energy            -296.916212755317 Eh    ::
         :: gradient norm              1.512086638542 Eh/a0 ::
         :: HOMO-LUMO gap              0.114755589542 eV    ::
         ::.................................................::
         :: SCC energy              -303.252052570891 Eh    ::
         :: -> isotropic ES            0.048658812199 Eh    ::
         :: -> anisotropic ES          0.056114641019 Eh    ::
         :: -> anisotropic XC          0.171192878828 Eh    ::
         :: -> dispersion             -0.362576644023 Eh    ::
         :: repulsion energy           6.339267081708 Eh    ::
         :: add. restraining           0.000000000000 Eh    ::
         :: total charge              -0.000000000000 e     ::
         :::::::::::::::::::::::::::::::::::::::::::::::::::::

      ----------------------------------------------------------- 
     |                   =====================                   |
     |                        A N C O P T                        |
     |                   =====================                   |
     |               Approximate Normal Coordinate               |
     |                Rational Function Optimizer                |
      ----------------------------------------------------------- 

          ...................................................
          :                      SETUP                      :
          :.................................................:
          :   optimization level            normal          :
          :   max. optcycles                   624          :
          :   ANC micro-cycles                  20          :
          :   degrees of freedom               618          :
          :.................................................:
          :   RF solver                   davidson          :
          :   write xtbopt.log                true          :
          :   linear?                        false          :
          :   energy convergence         0.5000000E-05 Eh   :
          :   grad. convergence          0.1000000E-02 Eh/α :
          :   maxmium RF displ.          1.0000000          :
          :   Hlow (freq-cutoff)         0.1000000E-01      :
          :   Hmax (freq-cutoff)         5.0000000          :
          :   S6 in model hess.         20.0000000          :
          ...................................................

generating ANC from model Hessian ...
Using Lindh-Hessian (1995)
 Shifting diagonal of input Hessian by    1.0006332874943531E-002
 Lowest  eigenvalues of input Hessian
    0.010000    0.000000    0.000000    0.000000    0.000000    0.000000
    0.000000    0.010017    0.010041    0.010081    0.010129    0.010202
    0.010219    0.010237    0.010239    0.010263    0.010292    0.010361
 Highest eigenvalues
    2.500288    2.500325    2.525397    2.525409    3.196451    3.196454


........................................................................
.............................. CYCLE    1 ..............................
........................................................................

 iter      E             dE          RMSdq      gap      omega  full diag
   1   -303.2520526 -0.303252E+03  0.370E-05    0.11       0.0  T
   2   -303.2520525  0.677990E-07  0.290E-04    0.11      23.9  T
   3   -303.2520526 -0.545976E-07  0.128E-04    0.11      54.0  T
     SCC iter.                  ...        0 min,  0.346 sec
     gradient                   ...        0 min,  0.971 sec
 * total energy  :  -296.9162127 Eh     change        0.1190233E-07 Eh
   gradient norm :     1.5120869 Eh/α   predicted     0.0000000E+00 (-100.00%)
   displ. norm   :     0.6555060 α      lambda       -0.8919991E+00
   maximum displ.:     0.1731375 α      in ANC's #616, #613, #614, ...

........................................................................
.............................. CYCLE    2 ..............................
........................................................................

 iter      E             dE          RMSdq      gap      omega  full diag
   1   -303.5951328 -0.303595E+03  0.283E-01    0.09       0.0  T
   2   -303.5820715  0.130613E-01  0.274E-01    0.12       1.0  T
   3   -303.4348732  0.147198E+00  0.499E-01    0.43       1.0  T
   4   -303.5584573 -0.123584E+00  0.258E-01    0.13       1.0  T
   5   -303.5133083  0.451491E-01  0.342E-01    0.21       1.0  T
   6   -303.5856477 -0.723395E-01  0.147E-01    0.11       1.0  T
   7   -303.6017583 -0.161105E-01  0.397E-02    0.10       1.0  T
   8   -303.6003124  0.144583E-02  0.591E-02    0.10       1.0  T
   9   -303.6021380 -0.182558E-02  0.323E-02    0.10       1.0  T
  10   -303.6029173 -0.779310E-03  0.734E-03    0.10       1.0  T
  11   -303.6028556  0.617054E-04  0.106E-02    0.10       1.0  T
  12   -303.6029411 -0.855112E-04  0.895E-04    0.10       7.7  T
  13   -303.6029412 -0.592433E-07  0.679E-04    0.10      10.2  T
  14   -303.6029415 -0.299484E-06  0.187E-04    0.10      37.0  T
     SCC iter.                  ...        0 min,  1.585 sec
     gradient                   ...        0 min,  0.971 sec
 * total energy  :  -297.5694984 Eh     change       -0.6532857E+00 Eh
   gradient norm :     0.6989424 Eh/α   predicted    -0.6376456E+00 (  -2.39%)
   displ. norm   :     0.7288249 α      lambda       -0.4262082E+00
   maximum displ.:     0.1868573 α      in ANC's #365, #317, #115, ...

........................................................................
.............................. CYCLE    3 ..............................
........................................................................

 iter      E             dE          RMSdq      gap      omega  full diag
   1   -303.9286752 -0.303929E+03  0.263E-01    0.06       0.0  T
   2   -303.9184440  0.102312E-01  0.223E-01    0.09       1.0  T
   3   -303.7581946  0.160249E+00  0.511E-01    0.43       1.0  T
   4   -303.8222487 -0.640541E-01  0.397E-01    0.15       1.0  T
   5   -303.8379430 -0.156943E-01  0.358E-01    0.17       1.0  T
   6   -303.9228754 -0.849323E-01  0.113E-01    0.08       1.0  T
   7   -303.9311003 -0.822486E-02  0.424E-02    0.07       1.0  T
   8   -303.9287744  0.232583E-02  0.701E-02    0.07       1.0  T
   9   -303.9325379 -0.376351E-02  0.657E-03    0.07       1.1  T
  10   -303.9325489 -0.109865E-04  0.403E-03    0.07       1.7  T
  11   -303.9324972  0.517186E-04  0.868E-03    0.07       1.0  T
  12   -303.9325502 -0.530465E-04  0.216E-03    0.07       3.2  T
  13   -303.9325533 -0.306404E-05  0.753E-04    0.07       9.2  T
  14   -303.9325536 -0.324802E-06  0.350E-04    0.07      19.8  T
  15   -303.9325537 -0.664261E-07  0.188E-04    0.07      36.8  T
     SCC iter.                  ...        0 min,  1.713 sec
     gradient                   ...        0 min,  0.967 sec
 * total energy  :  -297.9166234 Eh     change       -0.3471250E+00 Eh
   gradient norm :     0.3901193 Eh/α   predicted    -0.3263326E+00 (  -5.99%)
   displ. norm   :     0.7971691 α      lambda       -0.2760229E+00
   maximum displ.:     0.1720134 α      in ANC's #365, #317, #115, ...

........................................................................
.............................. CYCLE    4 ..............................
........................................................................

 iter      E             dE          RMSdq      gap      omega  full diag
   1   -304.2007328 -0.304201E+03  0.262E-01    0.03       0.0  T
   2   -304.1953591  0.537368E-02  0.194E-01    0.06       1.0  T
   3   -304.0317832  0.163576E+00  0.514E-01    0.34       1.0  T
   4   -304.0555025 -0.237193E-01  0.468E-01    0.21       1.0  T
   5   -304.1362290 -0.807265E-01  0.303E-01    0.10       1.0  T
   6   -304.1998560 -0.636269E-01  0.757E-02    0.05       1.0  T
   7   -304.2037673 -0.391134E-02  0.104E-02    0.04       1.0  T
   8   -304.2027043  0.106299E-02  0.382E-02    0.04       1.0  T
   9   -304.2026045  0.998332E-04  0.401E-02    0.04       1.0  T
  10   -304.2037397 -0.113519E-02  0.979E-03    0.04       1.0  T
  11   -304.2038072 -0.675608E-04  0.638E-04    0.04      10.9  T
  12   -304.2038071  0.104017E-06  0.583E-04    0.04      11.9  T
  13   -304.2038073 -0.201931E-06  0.142E-04    0.04      48.8  T
     SCC iter.                  ...        0 min,  1.492 sec
     gradient                   ...        0 min,  0.977 sec
 * total energy  :  -298.1468506 Eh     change       -0.2302272E+00 Eh
   gradient norm :     0.2347355 Eh/α   predicted    -0.2257148E+00 (  -1.96%)
   displ. norm   :     0.8483413 α      lambda       -0.1909940E+00
   maximum displ.:     0.1759622 α      in ANC's #115, #135, #317, ...

........................................................................
.............................. CYCLE    5 ..............................
........................................................................

 iter      E             dE          RMSdq      gap      omega  full diag
   1   -304.3895888 -0.304390E+03  0.252E-01    0.02       0.0  T
   2   -304.3862936  0.329525E-02  0.165E-01    0.03       1.0  T
   3   -304.2161570  0.170137E+00  0.522E-01    0.36       1.0  T
   4   -304.2430677 -0.269107E-01  0.475E-01    0.18       1.0  T
   5   -304.3199013 -0.768336E-01  0.317E-01    0.09       1.0  T
   6   -304.3912160 -0.713147E-01  0.191E-02    0.03       1.0  T
   7   -304.3909295  0.286542E-03  0.245E-02    0.03       1.0  T
   8   -304.3900166  0.912905E-03  0.431E-02    0.03       1.0  T
   9   -304.3903723 -0.355738E-03  0.372E-02    0.03       1.0  T
  10   -304.3913719 -0.999532E-03  0.233E-03    0.03       3.0  T
  11   -304.3913727 -0.799365E-06  0.176E-03    0.03       3.9  T
  12   -304.3913741 -0.143168E-05  0.995E-04    0.03       7.0  T
  13   -304.3913748 -0.672667E-06  0.171E-04    0.03      40.7  T
  14   -304.3913747  0.598366E-07  0.327E-04    0.03      21.2  T
     SCC iter.                  ...        0 min,  1.598 sec
     gradient                   ...        0 min,  0.968 sec
 * total energy  :  -298.3060078 Eh     change       -0.1591573E+00 Eh
   gradient norm :     0.1512390 Eh/α   predicted    -0.1642254E+00 (   3.18%)
   displ. norm   :     0.8352609 α      lambda       -0.1203537E+00
   maximum displ.:     0.1899653 α      in ANC's #115, #135, #72, ...

........................................................................
.............................. CYCLE    6 ..............................
........................................................................

 iter      E             dE          RMSdq      gap      omega  full diag
   1   -304.4880998 -0.304488E+03  0.219E-01    0.02       0.0  T
   2   -304.4851408  0.295895E-02  0.147E-01    0.02       1.0  T
   3   -304.3043722  0.180769E+00  0.538E-01    0.48       1.0  T
   4   -304.4354198 -0.131048E+00  0.289E-01    0.07       1.0  T
   5   -304.3773506  0.580692E-01  0.399E-01    0.13       1.0  T
   6   -304.4772234 -0.998728E-01  0.128E-01    0.03       1.0  T
   7   -304.4809439 -0.372053E-02  0.104E-01    0.03       1.0  T
   8   -304.4857034 -0.475949E-02  0.663E-02    0.02       1.0  T
   9   -304.4887925 -0.308910E-02  0.797E-03    0.02       1.0  T
  10   -304.4888317 -0.391449E-04  0.233E-03    0.02       3.0  T
  11   -304.4888265  0.516940E-05  0.347E-03    0.02       2.0  T
  12   -304.4888347 -0.818412E-05  0.579E-04    0.02      12.0  T
  13   -304.4888348 -0.158718E-06  0.290E-04    0.02      23.9  T
  14   -304.4888348  0.261293E-07  0.338E-04    0.02      20.5  T
     SCC iter.                  ...        0 min,  1.603 sec
     gradient                   ...        0 min,  0.966 sec
 * total energy  :  -298.4063623 Eh     change       -0.1003545E+00 Eh
   gradient norm :     0.1079878 Eh/α   predicted    -0.1021610E+00 (   1.80%)
   displ. norm   :     0.8607108 α      lambda       -0.8681288E-01
   maximum displ.:     0.1954296 α      in ANC's #47, #72, #115, ...

........................................................................
.............................. CYCLE    7 ..............................
........................................................................

 iter      E             dE          RMSdq      gap      omega  full diag
   1   -304.5169098 -0.304517E+03  0.199E-01    0.01       0.0  T
   2   -304.5090465  0.786325E-02  0.162E-01    0.03       1.0  T
   3   -304.3272206  0.181826E+00  0.553E-01    0.58       1.0  T
   4   -304.4294229 -0.102202E+00  0.359E-01    0.10       1.0  T
   5   -304.4048341  0.245888E-01  0.406E-01    0.13       1.0  T
   6   -304.5144253 -0.109591E+00  0.666E-02    0.02       1.0  T
   7   -304.5173824 -0.295714E-02  0.554E-03    0.01       1.3  T
   8   -304.5171070  0.275428E-03  0.201E-02    0.01       1.0  T
   9   -304.5170876  0.193948E-04  0.206E-02    0.01       1.0  T
  10   -304.5171236 -0.360148E-04  0.194E-02    0.01       1.0  T
  11   -304.5173847 -0.261161E-03  0.270E-03    0.01       2.6  T
  12   -304.5173898 -0.506276E-05  0.430E-04    0.01      16.1  T
  13   -304.5173899 -0.783008E-07  0.244E-04    0.01      28.4  T
  14   -304.5173899 -0.353585E-07  0.724E-05    0.01      95.7  T
     SCC iter.                  ...        0 min,  1.602 sec
     gradient                   ...        0 min,  0.970 sec
 * total energy  :  -298.4790060 Eh     change       -0.7264366E-01 Eh
   gradient norm :     0.0870589 Eh/α   predicted    -0.7556295E-01 (   4.02%)
   displ. norm   :     0.8680917 α      lambda       -0.6671361E-01
   maximum displ.:     0.2260063 α      in ANC's #47, #72, #31, ...

........................................................................
.............................. CYCLE    8 ..............................
........................................................................

 iter      E             dE          RMSdq      gap      omega  full diag
   1   -304.5269008 -0.304527E+03  0.169E-01    0.01       0.0  T
   2   -304.5259387  0.962016E-03  0.109E-01    0.01       1.0  T
   3   -304.3518579  0.174081E+00  0.519E-01    0.31       1.0  T
   4   -304.4466486 -0.947908E-01  0.346E-01    0.09       1.0  T
   5   -304.4768774 -0.302288E-01  0.269E-01    0.07       1.0  T
   6   -304.5271246 -0.502472E-01  0.149E-02    0.01       1.0  T
   7   -304.5266524  0.472163E-03  0.291E-02    0.01       1.0  T
   8   -304.5268618 -0.209379E-03  0.238E-02    0.01       1.0  T
   9   -304.5271187 -0.256881E-03  0.144E-02    0.01       1.0  T
  10   -304.5272636 -0.144925E-03  0.546E-04    0.01      12.7  T
  11   -304.5272634  0.265109E-06  0.746E-04    0.01       9.3  T
  12   -304.5272636 -0.206585E-06  0.489E-04    0.01      14.2  T
     SCC iter.                  ...        0 min,  1.389 sec
     gradient                   ...        0 min,  0.961 sec
 * total energy  :  -298.5356852 Eh     change       -0.5667922E-01 Eh
   gradient norm :     0.0662875 Eh/α   predicted    -0.5849400E-01 (   3.20%)
   displ. norm   :     0.8846941 α      lambda       -0.5214449E-01
   maximum displ.:     0.2736659 α      in ANC's #47, #31, #49, ...

........................................................................
.............................. CYCLE    9 ..............................
........................................................................

 iter      E             dE          RMSdq      gap      omega  full diag
   1   -304.5025794 -0.304503E+03  0.150E-01    0.01       0.0  T
   2   -304.4984946  0.408481E-02  0.118E-01    0.02       1.0  T
   3   -304.3194389  0.179056E+00  0.535E-01    0.47       1.0  T
   4   -304.4428701 -0.123431E+00  0.294E-01    0.07       1.0  T
   5   -304.4426896  0.180476E-03  0.295E-01    0.07       1.0  T
   6   -304.5008950 -0.582054E-01  0.522E-02    0.01       1.0  T
   7   -304.5027076 -0.181262E-02  0.732E-03    0.01       1.0  T
   8   -304.5027278 -0.202334E-04  0.431E-03    0.01       1.6  T
   9   -304.5027390 -0.112316E-04  0.115E-03    0.01       6.0  T
  10   -304.5027320  0.707531E-05  0.335E-03    0.01       2.1  T
  11   -304.5027373 -0.535679E-05  0.188E-03    0.01       3.7  T
  12   -304.5027387 -0.141626E-05  0.124E-03    0.01       5.6  T
  13   -304.5027396 -0.822350E-06  0.609E-04    0.01      11.4  T
  14   -304.5027398 -0.256289E-06  0.866E-05    0.01      80.1  T
     SCC iter.                  ...        0 min,  1.596 sec
     gradient                   ...        0 min,  0.967 sec
 * total energy  :  -298.5818268 Eh     change       -0.4614161E-01 Eh
   gradient norm :     0.0513276 Eh/α   predicted    -0.4647858E-01 (   0.73%)
   displ. norm   :     0.8998997 α      lambda       -0.4230504E-01
   maximum displ.:     0.2879080 α      in ANC's #47, #31, #49, ...

........................................................................
.............................. CYCLE   10 ..............................
........................................................................

 iter      E             dE          RMSdq      gap      omega  full diag
   1   -304.4847637 -0.304485E+03  0.138E-01    0.01       0.0  T
   2   -304.4532041  0.315596E-01  0.228E-01    0.05       1.0  T
   3   -304.3203304  0.132874E+00  0.498E-01    0.24       1.0  T
   4   -304.4275821 -0.107252E+00  0.290E-01    0.07       1.0  T
   5   -304.4811744 -0.535922E-01  0.725E-02    0.02       1.0  T
   6   -304.4835263 -0.235197E-02  0.439E-02    0.01       1.0  T
   7   -304.4842177 -0.691407E-03  0.316E-02    0.01       1.0  T
   8   -304.4849106 -0.692861E-03  0.312E-03    0.01       2.2  T
   9   -304.4848968  0.137564E-04  0.518E-03    0.01       1.3  T
  10   -304.4849056 -0.876693E-05  0.389E-03    0.01       1.8  T
  11   -304.4849162 -0.105994E-04  0.197E-04    0.01      35.2  T
  12   -304.4849162 -0.190871E-07  0.657E-05    0.01     105.6  T
  13   -304.4849162 -0.635168E-09  0.472E-05    0.01     147.0  T
     SCC iter.                  ...        0 min,  1.491 sec
     gradient                   ...        0 min,  0.964 sec
 * total energy  :  -298.6200673 Eh     change       -0.3824043E-01 Eh
   gradient norm :     0.0415712 Eh/α   predicted    -0.3828227E-01 (   0.11%)
   displ. norm   :     0.9054641 α      lambda       -0.3519195E-01
   maximum displ.:     0.3281369 α      in ANC's #47, #31, #49, ...

........................................................................
.............................. CYCLE   11 ..............................
........................................................................

 iter      E             dE          RMSdq      gap      omega  full diag
   1   -304.4617741 -0.304462E+03  0.135E-01    0.01       0.0  T
   2   -304.4421027  0.196714E-01  0.186E-01    0.04       1.0  T
   3   -304.2939565  0.148146E+00  0.503E-01    0.27       1.0  T
   4   -304.3911991 -0.972426E-01  0.319E-01    0.08       1.0  T
   5   -304.4616073 -0.704082E-01  0.211E-02    0.01       1.0  T
   6   -304.4614110  0.196358E-03  0.259E-02    0.01       1.0  T
   7   -304.4611819  0.229061E-03  0.319E-02    0.01       1.0  T
   8   -304.4617637 -0.581802E-03  0.142E-02    0.01       1.0  T
   9   -304.4619006 -0.136892E-03  0.225E-03    0.01       3.1  T
  10   -304.4618934  0.722005E-05  0.393E-03    0.01       1.8  T
  11   -304.4619042 -0.108112E-04  0.404E-04    0.01      17.2  T
  12   -304.4619043 -0.110906E-06  0.574E-05    0.01     120.7  T
  13   -304.4619043  0.200146E-08  0.686E-05    0.01     101.1  T
     SCC iter.                  ...        0 min,  1.486 sec
     gradient                   ...        0 min,  0.957 sec
 * total energy  :  -298.6517795 Eh     change       -0.3171222E-01 Eh
   gradient norm :     0.0380427 Eh/α   predicted    -0.3202233E-01 (   0.98%)
   displ. norm   :     0.9099229 α      lambda       -0.3025007E-01
   maximum displ.:     0.3142667 α      in ANC's #31, #47, #49, ...

........................................................................
.............................. CYCLE   12 ..............................
........................................................................

 iter      E             dE          RMSdq      gap      omega  full diag
   1   -304.4447589 -0.304445E+03  0.137E-01    0.01       0.0  T
   2   -304.2848984  0.159861E+00  0.488E-01    0.22       1.0  T
   3   -304.3508565 -0.659581E-01  0.377E-01    0.10       1.0  T
   4   -304.3870516 -0.361951E-01  0.290E-01    0.07       1.0  T
   5   -304.4397578 -0.527062E-01  0.897E-02    0.02       1.0  T
   6   -304.4437592 -0.400137E-02  0.497E-02    0.01       1.0  T
   7   -304.4451870 -0.142781E-02  0.222E-02    0.01       1.0  T
   8   -304.4455287 -0.341671E-03  0.316E-03    0.01       2.2  T
   9   -304.4455035  0.252385E-04  0.665E-03    0.01       1.0  T
  10   -304.4455292 -0.257301E-04  0.298E-03    0.01       2.3  T
  11   -304.4455354 -0.623687E-05  0.240E-04    0.01      28.9  T
  12   -304.4455355 -0.294060E-07  0.934E-05    0.01      74.2  T
  13   -304.4455355 -0.707416E-09  0.780E-05    0.01      89.0  T
     SCC iter.                  ...        0 min,  1.493 sec
     gradient                   ...        0 min,  0.961 sec
 * total energy  :  -298.6773591 Eh     change       -0.2557967E-01 Eh
   gradient norm :     0.0463847 Eh/α   predicted    -0.2764796E-01 (   8.09%)
   displ. norm   :     0.8935629 α      lambda       -0.2683910E-01
   maximum displ.:     0.3544780 α      in ANC's #31, #47, #49, ...

........................................................................
.............................. CYCLE   13 ..............................
........................................................................

 iter      E             dE          RMSdq      gap      omega  full diag
   1   -304.4312281 -0.304431E+03  0.136E-01    0.01       0.0  T
   2   -304.2788057  0.152422E+00  0.476E-01    0.19       1.0  T
   3   -304.3304473 -0.516416E-01  0.389E-01    0.11       1.0  T
   4   -304.4027459 -0.722986E-01  0.206E-01    0.05       1.0  T
   5   -304.4297619 -0.270160E-01  0.536E-02    0.01       1.0  T
   6   -304.4311284 -0.136651E-02  0.315E-02    0.01       1.0  T
   7   -304.4317413 -0.612877E-03  0.117E-02    0.01       1.0  T
   8   -304.4318377 -0.963924E-04  0.156E-03    0.00       4.5  T
   9   -304.4318153  0.223673E-04  0.567E-03    0.01       1.2  T
  10   -304.4318358 -0.205317E-04  0.195E-03    0.00       3.6  T
  11   -304.4318385 -0.266373E-05  0.259E-04    0.00      26.8  T
  12   -304.4318385 -0.391317E-07  0.697E-05    0.00      99.5  T
  13   -304.4318385  0.450541E-09  0.654E-05    0.00     106.0  T
     SCC iter.                  ...        0 min,  1.492 sec
     gradient                   ...        0 min,  0.958 sec
 * total energy  :  -298.6988255 Eh     change       -0.2146639E-01 Eh
   gradient norm :     0.0395007 Eh/α   predicted    -0.2413447E-01 (  12.43%)
   displ. norm   :     0.8689081 α      lambda       -0.2100731E-01
   maximum displ.:     0.3385399 α      in ANC's #47, #31, #49, ...

........................................................................
.............................. CYCLE   14 ..............................
........................................................................

 iter      E             dE          RMSdq      gap      omega  full diag
   1   -304.4078877 -0.304408E+03  0.134E-01    0.00       0.0  T
   2   -304.3816577  0.262300E-01  0.209E-01    0.04       1.0  T
   3   -304.2427269  0.138931E+00  0.498E-01    0.24       1.0  T
   4   -304.3405597 -0.978328E-01  0.311E-01    0.08       1.0  T
   5   -304.4047155 -0.641558E-01  0.676E-02    0.02       1.0  T
   6   -304.4070968 -0.238124E-02  0.348E-02    0.01       1.0  T
   7   -304.4073326 -0.235869E-03  0.302E-02    0.01       1.0  T
   8   -304.4079751 -0.642463E-03  0.212E-03    0.00       3.3  T
   9   -304.4079552  0.198740E-04  0.553E-03    0.00       1.3  T
  10   -304.4079718 -0.165697E-04  0.285E-03    0.00       2.4  T
  11   -304.4079774 -0.559940E-05  0.438E-04    0.00      15.8  T
  12   -304.4079775 -0.781134E-07  0.276E-04    0.00      25.1  T
  13   -304.4079775 -0.415300E-07  0.131E-04    0.00      52.9  T
     SCC iter.                  ...        0 min,  1.485 sec
     gradient                   ...        0 min,  0.952 sec
 * total energy  :  -298.7159850 Eh     change       -0.1715945E-01 Eh
   gradient norm :     0.0351740 Eh/α   predicted    -0.1843395E-01 (   7.43%)
   displ. norm   :     0.8680716 α      lambda       -0.1832195E-01
   maximum displ.:     0.3714479 α      in ANC's #31, #47, #17, ...

........................................................................
.............................. CYCLE   15 ..............................
........................................................................

 iter      E             dE          RMSdq      gap      omega  full diag
   1   -304.4065979 -0.304407E+03  0.130E-01    0.01       0.0  T
   2   -304.2412309  0.165367E+00  0.497E-01    0.25       1.0  T
   3   -304.3305460 -0.893151E-01  0.341E-01    0.09       1.0  T
   4   -304.3226925  0.785349E-02  0.349E-01    0.10       1.0  T
   5   -304.3981078 -0.754153E-01  0.115E-01    0.03       1.0  T
   6   -304.4051415 -0.703367E-02  0.581E-02    0.01       1.0  T
   7   -304.4067583 -0.161684E-02  0.341E-02    0.01       1.0  T
   8   -304.4075245 -0.766111E-03  0.866E-03    0.00       1.0  T
   9   -304.4075206  0.390720E-05  0.895E-03    0.00       1.0  T
  10   -304.4075708 -0.502256E-04  0.330E-03    0.00       2.1  T
  11   -304.4075784 -0.763660E-05  0.267E-04    0.00      25.9  T
  12   -304.4075784  0.379822E-08  0.272E-04    0.00      25.5  T
  13   -304.4075784 -0.248582E-07  0.189E-04    0.00      36.6  T
     SCC iter.                  ...        0 min,  1.490 sec
     gradient                   ...        0 min,  0.954 sec
 * total energy  :  -298.7297610 Eh     change       -0.1377597E-01 Eh
   gradient norm :     0.0390843 Eh/α   predicted    -0.1606419E-01 (  16.61%)
   displ. norm   :     0.8258225 α      lambda       -0.1497001E-01
   maximum displ.:     0.3527830 α      in ANC's #31, #47, #17, ...

........................................................................
.............................. CYCLE   16 ..............................
........................................................................

 iter      E             dE          RMSdq      gap      omega  full diag
   1   -304.3967537 -0.304397E+03  0.129E-01    0.01       0.0  T
   2   -304.2404099  0.156344E+00  0.482E-01    0.21       1.0  T
   3   -304.3139161 -0.735062E-01  0.354E-01    0.09       1.0  T
   4   -304.3418567 -0.279406E-01  0.282E-01    0.07       1.0  T
   5   -304.3926074 -0.507507E-01  0.816E-02    0.02       1.0  T
   6   -304.3960770 -0.346966E-02  0.427E-02    0.01       1.0  T
   7   -304.3971330 -0.105598E-02  0.189E-02    0.01       1.0  T
   8   -304.3973772 -0.244134E-03  0.348E-03    0.00       2.0  T
   9   -304.3973730  0.414704E-05  0.418E-03    0.00       1.7  T
  10   -304.3973828 -0.983997E-05  0.199E-03    0.00       3.5  T
  11   -304.3973856 -0.271802E-05  0.348E-04    0.00      19.9  T
  12   -304.3973856 -0.818538E-07  0.327E-05    0.00     212.0  T
  13   -304.3973856  0.510386E-08  0.853E-05    0.00      81.3  T
     SCC iter.                  ...        0 min,  1.493 sec
     gradient                   ...        0 min,  0.955 sec
 * total energy  :  -298.7414726 Eh     change       -0.1171168E-01 Eh
   gradient norm :     0.0309775 Eh/α   predicted    -0.1258966E-01 (   7.50%)
   displ. norm   :     0.8294414 α      lambda       -0.1270203E-01
   maximum displ.:     0.3788726 α      in ANC's #31, #47, #17, ...

........................................................................
.............................. CYCLE   17 ..............................
........................................................................

 iter      E             dE          RMSdq      gap      omega  full diag
   1   -304.3831371 -0.304383E+03  0.129E-01    0.00       0.0  T
   2   -304.3148683  0.682689E-01  0.321E-01    0.08       1.0  T
   3   -304.2405482  0.743201E-01  0.463E-01    0.17       1.0  T
   4   -304.3597808 -0.119233E+00  0.186E-01    0.04       1.0  T
   5   -304.3825263 -0.227455E-01  0.342E-02    0.01       1.0  T
   6   -304.3833096 -0.783313E-03  0.415E-03    0.00       1.7  T
   7   -304.3832715  0.380633E-04  0.849E-03    0.00       1.0  T
   8   -304.3833169 -0.453404E-04  0.247E-03    0.00       2.8  T
   9   -304.3833211 -0.426199E-05  0.347E-04    0.00      20.0  T
  10   -304.3833207  0.408988E-06  0.815E-04    0.00       8.5  T
  11   -304.3833211 -0.406363E-06  0.286E-04    0.00      24.2  T
     SCC iter.                  ...        0 min,  1.256 sec
     gradient                   ...        0 min,  0.958 sec
 * total energy  :  -298.7505316 Eh     change       -0.9058921E-02 Eh
   gradient norm :     0.0420253 Eh/α   predicted    -0.1072035E-01 (  18.34%)
   displ. norm   :     0.7841900 α      lambda       -0.1079283E-01
   maximum displ.:     0.3514657 α      in ANC's #31, #17, #47, ...

........................................................................
.............................. CYCLE   18 ..............................
........................................................................

 iter      E             dE          RMSdq      gap      omega  full diag
   1   -304.3827576 -0.304383E+03  0.125E-01    0.00       0.0  T
   2   -304.3770007  0.575690E-02  0.118E-01    0.02       1.0  T
   3   -304.2057482  0.171253E+00  0.522E-01    0.36       1.0  T
   4   -304.3114212 -0.105673E+00  0.321E-01    0.08       1.0  T
   5   -304.3736315 -0.622103E-01  0.115E-01    0.03       1.0  T
   6   -304.3821518 -0.852036E-02  0.312E-02    0.01       1.0  T
   7   -304.3826800 -0.528211E-03  0.134E-02    0.00       1.0  T
   8   -304.3828002 -0.120154E-03  0.242E-03    0.00       2.9  T
   9   -304.3827862  0.140126E-04  0.511E-03    0.00       1.4  T
  10   -304.3827990 -0.128019E-04  0.274E-03    0.00       2.5  T
  11   -304.3828040 -0.502604E-05  0.645E-04    0.00      10.8  T
  12   -304.3828037  0.248617E-06  0.877E-04    0.00       7.9  T
  13   -304.3828043 -0.540978E-06  0.175E-05    0.00     397.1  T
     SCC iter.                  ...        0 min,  1.490 sec
     gradient                   ...        0 min,  0.952 sec
 * total energy  :  -298.7589984 Eh     change       -0.8466879E-02 Eh
   gradient norm :     0.0186696 Eh/α   predicted    -0.8714974E-02 (   2.93%)
   displ. norm   :     0.8246367 α      lambda       -0.8665903E-02
   maximum displ.:     0.3670264 α      in ANC's #31, #17, #18, ...

........................................................................
.............................. CYCLE   19 ..............................
........................................................................

 iter      E             dE          RMSdq      gap      omega  full diag
   1   -304.3848352 -0.304385E+03  0.127E-01    0.00       0.0  T
   2   -304.3848147  0.204712E-04  0.754E-02    0.00       1.0  T
   3   -304.2811038  0.103711E+00  0.388E-01    0.11       1.0  T
   4   -304.3817227 -0.100619E+00  0.684E-02    0.01       1.0  T
   5   -304.3847413 -0.301861E-02  0.132E-02    0.00       1.0  T
   6   -304.3848568 -0.115455E-03  0.156E-03    0.00       4.4  T
   7   -304.3848521  0.461685E-05  0.275E-03    0.00       2.5  T
   8   -304.3848571 -0.492157E-05  0.444E-04    0.00      15.6  T
   9   -304.3848571 -0.714917E-07  0.154E-04    0.00      45.1  T
  10   -304.3848571 -0.499847E-08  0.726E-05    0.00      95.5  T
     SCC iter.                  ...        0 min,  1.143 sec
     gradient                   ...        0 min,  0.952 sec
 * total energy  :  -298.7660247 Eh     change       -0.7026241E-02 Eh
   gradient norm :     0.0244694 Eh/α   predicted    -0.7279470E-02 (   3.60%)
   displ. norm   :     0.8348047 α      lambda       -0.7654426E-02
   maximum displ.:     0.3840379 α      in ANC's #31, #17, #20, ...

........................................................................
.............................. CYCLE   20 ..............................
........................................................................

 iter      E             dE          RMSdq      gap      omega  full diag
   1   -304.3849656 -0.304385E+03  0.127E-01    0.00       0.0  T
   2   -304.3451987  0.397669E-01  0.252E-01    0.06       1.0  T
   3   -304.2379572  0.107241E+00  0.472E-01    0.17       1.0  T
   4   -304.3484429 -0.110486E+00  0.231E-01    0.05       1.0  T
   5   -304.3837733 -0.353303E-01  0.427E-02    0.01       1.0  T
   6   -304.3849842 -0.121089E-02  0.854E-03    0.00       1.0  T
   7   -304.3849850 -0.838146E-06  0.862E-03    0.00       1.0  T
   8   -304.3850351 -0.501380E-04  0.140E-03    0.00       5.0  T
   9   -304.3850357 -0.558818E-06  0.982E-04    0.00       7.1  T
  10   -304.3850361 -0.441575E-06  0.589E-04    0.00      11.8  T
     SCC iter.                  ...        0 min,  1.151 sec
     gradient                   ...        0 min,  0.949 sec
 * total energy  :  -298.7719008 Eh     change       -0.5876073E-02 Eh
   gradient norm :     0.0277915 Eh/α   predicted    -0.6494401E-02 (  10.52%)
   displ. norm   :     0.8111027 α      lambda       -0.7273482E-02
   maximum displ.:     0.3296089 α      in ANC's #31, #17, #18, ...
 * RMSD in coord.:     0.9031450 α      energy gain  -0.1855688E+01 Eh

generating ANC from model Hessian ...
Using Lindh-Hessian (1995)
 Shifting diagonal of input Hessian by    1.0074461387729047E-002
 Lowest  eigenvalues of input Hessian
    0.010000    0.010015    0.000000    0.000000    0.000000    0.000000
    0.000000    0.000000    0.010077    0.010084    0.010098    0.010168
    0.010230    0.010237    0.010247    0.010252    0.010284    0.010425
 Highest eigenvalues
    2.116366    2.120480    2.142589    2.167954    2.595335    2.595640


........................................................................
.............................. CYCLE   21 ..............................
........................................................................

 iter      E             dE          RMSdq      gap      omega  full diag
   1   -304.3837784 -0.304384E+03  0.132E-01    0.00       0.0  T
   2   -304.3831168  0.661611E-03  0.838E-02    0.01       1.0  T
   3   -304.2034736  0.179643E+00  0.531E-01    0.39       1.0  T
   4   -304.3673042 -0.163831E+00  0.155E-01    0.03       1.0  T
   5   -304.3721635 -0.485932E-02  0.130E-01    0.03       1.0  T
   6   -304.3836382 -0.114747E-01  0.154E-02    0.00       1.0  T
   7   -304.3837843 -0.146147E-03  0.399E-03    0.00       1.7  T
   8   -304.3837940 -0.971407E-05  0.978E-04    0.00       7.1  T
   9   -304.3837944 -0.391678E-06  0.322E-04    0.00      21.5  T
  10   -304.3837944 -0.870227E-08  0.157E-04    0.00      44.1  T
     SCC iter.                  ...        0 min,  1.143 sec
     gradient                   ...        0 min,  0.958 sec
 * total energy  :  -298.7767631 Eh     change       -0.4862301E-02 Eh
   gradient norm :     0.0277242 Eh/α   predicted     0.0000000E+00 (-100.00%)
   displ. norm   :     0.4097512 α      lambda       -0.3758080E-02
   maximum displ.:     0.2131470 α      in ANC's #11, #10, #39, ...

........................................................................
.............................. CYCLE   22 ..............................
........................................................................

 iter      E             dE          RMSdq      gap      omega  full diag
   1   -304.3946729 -0.304395E+03  0.603E-02    0.00       0.0  T
   2   -304.3815492  0.131237E-01  0.144E-01    0.03       1.0  T
   3   -304.3460042  0.355450E-01  0.269E-01    0.06       1.0  T
   4   -304.3945185 -0.485143E-01  0.170E-02    0.00       1.0  T
   5   -304.3946815 -0.163004E-03  0.415E-03    0.00       1.7  T
   6   -304.3946905 -0.898772E-05  0.131E-03    0.00       5.3  T
   7   -304.3946903  0.195122E-06  0.129E-03    0.00       5.4  T
   8   -304.3946913 -0.100526E-05  0.257E-04    0.00      26.9  T
   9   -304.3946913 -0.174083E-08  0.196E-04    0.00      35.4  T
  10   -304.3946913 -0.238359E-07  0.365E-05    0.00     189.9  T
     SCC iter.                  ...        0 min,  1.150 sec
     gradient                   ...        0 min,  0.951 sec
 * total energy  :  -298.7798960 Eh     change       -0.3132902E-02 Eh
   gradient norm :     0.0104234 Eh/α   predicted    -0.2194537E-02 ( -29.95%)
   displ. norm   :     0.7218104 α      lambda       -0.4507812E-02
   maximum displ.:     0.3538260 α      in ANC's #11, #10, #39, ...

........................................................................
.............................. CYCLE   23 ..............................
........................................................................

 iter      E             dE          RMSdq      gap      omega  full diag
   1   -304.4042261 -0.304404E+03  0.978E-02    0.00       0.0  T
   2   -304.4042312 -0.512472E-05  0.579E-02    0.00       1.0  T
   3   -304.4007985  0.343273E-02  0.718E-02    0.02       1.0  T
   4   -304.3860187  0.147798E-01  0.164E-01    0.04       1.0  T
   5   -304.4042316 -0.182128E-01  0.318E-03    0.00       2.2  T
   6   -304.4042368 -0.518503E-05  0.106E-03    0.00       6.5  T
   7   -304.4042367  0.706815E-07  0.780E-04    0.00       8.9  T
   8   -304.4042369 -0.246211E-06  0.290E-04    0.00      23.9  T
     SCC iter.                  ...        0 min,  0.917 sec
     gradient                   ...        0 min,  0.948 sec
 * total energy  :  -298.7836240 Eh     change       -0.3728010E-02 Eh
   gradient norm :     0.0162882 Eh/α   predicted    -0.3428215E-02 (  -8.04%)
   displ. norm   :     0.7883497 α      lambda       -0.3944929E-02
   maximum displ.:     0.4066895 α      in ANC's #11, #10, #39, ...

........................................................................
.............................. CYCLE   24 ..............................
........................................................................

 iter      E             dE          RMSdq      gap      omega  full diag
   1   -304.4077577 -0.304408E+03  0.105E-01    0.00       0.0  T
   2   -304.4070574  0.700323E-03  0.699E-02    0.01       1.0  T
   3   -304.2311550  0.175902E+00  0.526E-01    0.34       1.0  T
   4   -304.3931490 -0.161994E+00  0.147E-01    0.03       1.0  T
   5   -304.4032604 -0.101114E-01  0.817E-02    0.02       1.0  T
   6   -304.4076147 -0.435429E-02  0.152E-02    0.00       1.0  T
   7   -304.4077440 -0.129287E-03  0.572E-03    0.00       1.2  T
   8   -304.4077655 -0.214890E-04  0.944E-04    0.00       7.3  T
   9   -304.4077637  0.180456E-05  0.186E-03    0.00       3.7  T
  10   -304.4077657 -0.201089E-05  0.692E-04    0.00      10.0  T
  11   -304.4077660 -0.289300E-06  0.237E-04    0.00      29.3  T
  12   -304.4077659  0.414007E-07  0.342E-04    0.00      20.3  T
     SCC iter.                  ...        0 min,  1.378 sec
     gradient                   ...        0 min,  0.949 sec
 * total energy  :  -298.7870553 Eh     change       -0.3431299E-02 Eh
   gradient norm :     0.0223656 Eh/α   predicted    -0.3198342E-02 (  -6.79%)
   displ. norm   :     0.8218016 α      lambda       -0.4062873E-02
   maximum displ.:     0.4238749 α      in ANC's #11, #10, #39, ...

........................................................................
.............................. CYCLE   25 ..............................
........................................................................

 iter      E             dE          RMSdq      gap      omega  full diag
   1   -304.4113085 -0.304411E+03  0.105E-01    0.00       0.0  T
   2   -304.4112371  0.714078E-04  0.627E-02    0.00       1.0  T
   3   -304.2674974  0.143740E+00  0.467E-01    0.17       1.0  T
   4   -304.4112844 -0.143787E+00  0.957E-03    0.00       1.0  T
   5   -304.4112856 -0.118326E-05  0.690E-03    0.00       1.0  T
   6   -304.4113019 -0.162766E-04  0.465E-03    0.00       1.5  T
   7   -304.4113155 -0.136477E-04  0.104E-03    0.00       6.7  T
   8   -304.4113151  0.383472E-06  0.119E-03    0.00       5.8  T
   9   -304.4113157 -0.525466E-06  0.784E-04    0.00       8.8  T
  10   -304.4113160 -0.326953E-06  0.369E-04    0.00      18.8  T
     SCC iter.                  ...        0 min,  1.146 sec
     gradient                   ...        0 min,  0.949 sec
 * total energy  :  -298.7905786 Eh     change       -0.3523369E-02 Eh
   gradient norm :     0.0160389 Eh/α   predicted    -0.3403405E-02 (  -3.40%)
   displ. norm   :     0.8303487 α      lambda       -0.3582258E-02
   maximum displ.:     0.4341233 α      in ANC's #11, #10, #39, ...

........................................................................
.............................. CYCLE   26 ..............................
........................................................................

 iter      E             dE          RMSdq      gap      omega  full diag
   1   -304.4143547 -0.304414E+03  0.993E-02    0.00       0.0  T
   2   -304.4140577  0.297022E-03  0.623E-02    0.01       1.0  T
   3   -304.2433962  0.170661E+00  0.516E-01    0.28       1.0  T
   4   -304.4114206 -0.168024E+00  0.666E-02    0.01       1.0  T
   5   -304.4134033 -0.198266E-02  0.380E-02    0.01       1.0  T
   6   -304.4141772 -0.773987E-03  0.168E-02    0.00       1.0  T
   7   -304.4143624 -0.185165E-03  0.875E-04    0.00       7.9  T
   8   -304.4143608  0.165189E-05  0.173E-03    0.00       4.0  T
   9   -304.4143601  0.684614E-06  0.199E-03    0.00       3.5  T
  10   -304.4143623 -0.224454E-05  0.779E-04    0.00       8.9  T
  11   -304.4143626 -0.317602E-06  0.372E-04    0.00      18.6  T
  12   -304.4143627 -0.601178E-07  0.223E-04    0.00      31.1  T
     SCC iter.                  ...        0 min,  1.378 sec
     gradient                   ...        0 min,  0.952 sec
 * total energy  :  -298.7936549 Eh     change       -0.3076288E-02 Eh
   gradient norm :     0.0074332 Eh/α   predicted    -0.3026078E-02 (  -1.63%)
   displ. norm   :     0.8467260 α      lambda       -0.2880584E-02
   maximum displ.:     0.4566939 α      in ANC's #11, #10, #39, ...

........................................................................
.............................. CYCLE   27 ..............................
........................................................................

 iter      E             dE          RMSdq      gap      omega  full diag
   1   -304.4177701 -0.304418E+03  0.895E-02    0.00       0.0  T
   2   -304.4177461  0.239893E-04  0.531E-02    0.00       1.0  T
   3   -304.3230855  0.946606E-01  0.380E-01    0.10       1.0  T
   4   -304.4175482 -0.944626E-01  0.200E-02    0.00       1.0  T
   5   -304.4177598 -0.211644E-03  0.527E-03    0.00       1.3  T
   6   -304.4177766 -0.167823E-04  0.102E-03    0.00       6.8  T
   7   -304.4177766  0.960665E-08  0.747E-04    0.00       9.3  T
   8   -304.4177767 -0.138751E-06  0.496E-04    0.00      14.0  T
     SCC iter.                  ...        0 min,  0.917 sec
     gradient                   ...        0 min,  0.952 sec
 * total energy  :  -298.7962177 Eh     change       -0.2562773E-02 Eh
   gradient norm :     0.0079443 Eh/α   predicted    -0.2472903E-02 (  -3.51%)
   displ. norm   :     0.8548387 α      lambda       -0.2561284E-02
   maximum displ.:     0.4527590 α      in ANC's #11, #10, #39, ...

........................................................................
.............................. CYCLE   28 ..............................
........................................................................

 iter      E             dE          RMSdq      gap      omega  full diag
   1   -304.4209849 -0.304421E+03  0.853E-02    0.00       0.0  T
   2   -304.4204348  0.550073E-03  0.579E-02    0.01       1.0  T
   3   -304.2490035  0.171431E+00  0.522E-01    0.28       1.0  T
   4   -304.4146310 -0.165628E+00  0.984E-02    0.02       1.0  T
   5   -304.4194526 -0.482159E-02  0.485E-02    0.01       1.0  T
   6   -304.4208743 -0.142170E-02  0.136E-02    0.00       1.0  T
   7   -304.4209803 -0.105955E-03  0.417E-03    0.00       1.7  T
   8   -304.4209860 -0.573153E-05  0.293E-03    0.00       2.4  T
   9   -304.4209862 -0.222810E-06  0.288E-03    0.00       2.4  T
  10   -304.4209912 -0.496905E-05  0.890E-04    0.00       7.8  T
  11   -304.4209917 -0.524235E-06  0.657E-05    0.00     105.5  T
  12   -304.4209917  0.157675E-07  0.167E-04    0.00      41.4  T
     SCC iter.                  ...        0 min,  1.374 sec
     gradient                   ...        0 min,  0.956 sec
 * total energy  :  -298.7985046 Eh     change       -0.2286884E-02 Eh
   gradient norm :     0.0066851 Eh/α   predicted    -0.2216474E-02 (  -3.08%)
   displ. norm   :     0.8558203 α      lambda       -0.2257455E-02
   maximum displ.:     0.4506859 α      in ANC's #11, #10, #1, ...

........................................................................
.............................. CYCLE   29 ..............................
........................................................................

 iter      E             dE          RMSdq      gap      omega  full diag
   1   -304.4276552 -0.304428E+03  0.783E-02    0.00       0.0  T
   2   -304.4276077  0.474585E-04  0.469E-02    0.00       1.0  T
   3   -304.3041521  0.123456E+00  0.438E-01    0.13       1.0  T
   4   -304.4275951 -0.123443E+00  0.123E-02    0.00       1.0  T
   5   -304.4276253 -0.302389E-04  0.748E-03    0.00       1.0  T
   6   -304.4276557 -0.303922E-04  0.286E-03    0.00       2.4  T
   7   -304.4276608 -0.506822E-05  0.403E-04    0.00      17.2  T
   8   -304.4276602  0.541949E-06  0.948E-04    0.00       7.3  T
   9   -304.4276608 -0.550156E-06  0.198E-04    0.00      35.0  T
     SCC iter.                  ...        0 min,  1.028 sec
     gradient                   ...        0 min,  0.949 sec
 * total energy  :  -298.8005320 Eh     change       -0.2027387E-02 Eh
   gradient norm :     0.0054723 Eh/α   predicted    -0.1955444E-02 (  -3.55%)
   displ. norm   :     0.8629484 α      lambda       -0.1976344E-02
   maximum displ.:     0.4449133 α      in ANC's #11, #10, #1, ...

........................................................................
.............................. CYCLE   30 ..............................
........................................................................

 iter      E             dE          RMSdq      gap      omega  full diag
   1   -304.4309233 -0.304431E+03  0.774E-02    0.00       0.0  T
   2   -304.4299736  0.949625E-03  0.596E-02    0.01       1.0  T
   3   -304.2621545  0.167819E+00  0.520E-01    0.25       1.0  T
   4   -304.4224621 -0.160308E+00  0.114E-01    0.02       1.0  T
   5   -304.4303641 -0.790198E-02  0.297E-02    0.01       1.0  T
   6   -304.4309094 -0.545237E-03  0.582E-03    0.00       1.2  T
   7   -304.4309122 -0.285480E-05  0.507E-03    0.00       1.4  T
   8   -304.4309195 -0.725348E-05  0.378E-03    0.00       1.8  T
   9   -304.4309239 -0.440379E-05  0.278E-03    0.00       2.5  T
  10   -304.4309286 -0.474555E-05  0.663E-04    0.00      10.5  T
  11   -304.4309289 -0.268456E-06  0.173E-04    0.00      40.1  T
  12   -304.4309289 -0.941492E-08  0.122E-04    0.00      56.9  T
     SCC iter.                  ...        0 min,  1.370 sec
     gradient                   ...        0 min,  0.953 sec
 * total energy  :  -298.8023095 Eh     change       -0.1777488E-02 Eh
   gradient norm :     0.0051843 Eh/α   predicted    -0.1724045E-02 (  -3.01%)
   displ. norm   :     0.8693375 α      lambda       -0.1828643E-02
   maximum displ.:     0.4300024 α      in ANC's #11, #10, #1, ...

........................................................................
.............................. CYCLE   31 ..............................
........................................................................

 iter      E             dE          RMSdq      gap      omega  full diag
   1   -304.4328638 -0.304433E+03  0.822E-02    0.00       0.0  T
   2   -304.4320130  0.850846E-03  0.604E-02    0.01       1.0  T
   3   -304.2612451  0.170768E+00  0.527E-01    0.27       1.0  T
   4   -304.4227240 -0.161479E+00  0.126E-01    0.03       1.0  T
   5   -304.4317747 -0.905061E-02  0.414E-02    0.01       1.0  T
   6   -304.4328336 -0.105893E-02  0.778E-03    0.00       1.0  T
   7   -304.4328472 -0.135741E-04  0.587E-03    0.00       1.2  T
   8   -304.4328598 -0.126172E-04  0.383E-03    0.00       1.8  T
   9   -304.4328642 -0.447824E-05  0.282E-03    0.00       2.5  T
  10   -304.4328689 -0.463534E-05  0.884E-04    0.00       7.8  T
  11   -304.4328694 -0.482280E-06  0.203E-04    0.00      34.1  T
  12   -304.4328694 -0.921631E-08  0.162E-04    0.00      42.7  T
     SCC iter.                  ...        0 min,  1.378 sec
     gradient                   ...        0 min,  0.945 sec
 * total energy  :  -298.8038749 Eh     change       -0.1565451E-02 Eh
   gradient norm :     0.0057254 Eh/α   predicted    -0.1605320E-02 (   2.55%)
   displ. norm   :     0.8480838 α      lambda       -0.1664237E-02
   maximum displ.:     0.4254382 α      in ANC's #10, #11, #1, ...

........................................................................
.............................. CYCLE   32 ..............................
........................................................................

 iter      E             dE          RMSdq      gap      omega  full diag
   1   -304.4357134 -0.304436E+03  0.819E-02    0.00       0.0  T
   2   -304.4339490  0.176434E-02  0.716E-02    0.01       1.0  T
   3   -304.2681396  0.165809E+00  0.522E-01    0.24       1.0  T
   4   -304.4219678 -0.153828E+00  0.147E-01    0.03       1.0  T
   5   -304.4355799 -0.136121E-01  0.150E-02    0.00       1.0  T
   6   -304.4357152 -0.135264E-03  0.259E-03    0.00       2.7  T
   7   -304.4356916  0.236151E-04  0.655E-03    0.00       1.1  T
   8   -304.4357066 -0.150053E-04  0.440E-03    0.00       1.6  T
   9   -304.4357163 -0.969520E-05  0.212E-03    0.00       3.3  T
  10   -304.4357190 -0.271195E-05  0.522E-04    0.00      13.3  T
  11   -304.4357191 -0.107465E-06  0.326E-04    0.00      21.2  T
  12   -304.4357191 -0.625212E-07  0.918E-05    0.00      75.5  T
     SCC iter.                  ...        0 min,  1.366 sec
     gradient                   ...        0 min,  0.957 sec
 * total energy  :  -298.8053309 Eh     change       -0.1455945E-02 Eh
   gradient norm :     0.0053076 Eh/α   predicted    -0.1430624E-02 (  -1.74%)
   displ. norm   :     0.8494607 α      lambda       -0.1430739E-02
   maximum displ.:     0.4337184 α      in ANC's #10, #11, #23, ...

........................................................................
.............................. CYCLE   33 ..............................
........................................................................

 iter      E             dE          RMSdq      gap      omega  full diag
   1   -304.4378687 -0.304438E+03  0.838E-02    0.00       0.0  T
   2   -304.4378376  0.311519E-04  0.498E-02    0.00       1.0  T
   3   -304.3307786  0.107059E+00  0.413E-01    0.11       1.0  T
   4   -304.4378537 -0.107075E+00  0.719E-03    0.00       1.0  T
   5   -304.4378616 -0.785911E-05  0.433E-03    0.00       1.6  T
   6   -304.4378715 -0.989802E-05  0.128E-03    0.00       5.4  T
   7   -304.4378723 -0.838786E-06  0.329E-04    0.00      21.1  T
   8   -304.4378720  0.313486E-06  0.714E-04    0.00       9.7  T
     SCC iter.                  ...        0 min,  0.918 sec
     gradient                   ...        0 min,  0.953 sec
 * total energy  :  -298.8066225 Eh     change       -0.1291670E-02 Eh
   gradient norm :     0.0050903 Eh/α   predicted    -0.1231575E-02 (  -4.65%)
   displ. norm   :     0.8539261 α      lambda       -0.1323579E-02
   maximum displ.:     0.4359181 α      in ANC's #10, #11, #23, ...

........................................................................
.............................. CYCLE   34 ..............................
........................................................................

 iter      E             dE          RMSdq      gap      omega  full diag
   1   -304.4387625 -0.304439E+03  0.912E-02    0.00       0.0  T
   2   -304.4383752  0.387275E-03  0.590E-02    0.01       1.0  T
   3   -304.2662313  0.172144E+00  0.534E-01    0.28       1.0  T
   4   -304.4338467 -0.167615E+00  0.884E-02    0.02       1.0  T
   5   -304.4374999 -0.365323E-02  0.449E-02    0.01       1.0  T
   6   -304.4387132 -0.121325E-02  0.946E-03    0.00       1.0  T
   7   -304.4387592 -0.459995E-04  0.351E-03    0.00       2.0  T
   8   -304.4387615 -0.237108E-05  0.290E-03    0.00       2.4  T
   9   -304.4387612  0.285747E-06  0.299E-03    0.00       2.3  T
  10   -304.4387663 -0.506026E-05  0.101E-03    0.00       6.9  T
  11   -304.4387669 -0.631819E-06  0.160E-04    0.00      43.4  T
  12   -304.4387670 -0.106862E-07  0.906E-05    0.00      76.6  T
     SCC iter.                  ...        0 min,  1.377 sec
     gradient                   ...        0 min,  0.963 sec
 * total energy  :  -298.8078088 Eh     change       -0.1186290E-02 Eh
   gradient norm :     0.0045660 Eh/α   predicted    -0.1144361E-02 (  -3.53%)
   displ. norm   :     0.8483878 α      lambda       -0.1180353E-02
   maximum displ.:     0.4332350 α      in ANC's #10, #23, #11, ...

........................................................................
.............................. CYCLE   35 ..............................
........................................................................

 iter      E             dE          RMSdq      gap      omega  full diag
   1   -304.4425660 -0.304443E+03  0.968E-02    0.00       0.0  T
   2   -304.4425240  0.419614E-04  0.576E-02    0.00       1.0  T
   3   -304.3195593  0.122965E+00  0.446E-01    0.13       1.0  T
   4   -304.4425526 -0.122993E+00  0.693E-03    0.00       1.0  T
   5   -304.4425601 -0.748569E-05  0.419E-03    0.00       1.7  T
   6   -304.4425674 -0.723597E-05  0.206E-03    0.00       3.4  T
   7   -304.4425697 -0.238398E-05  0.554E-04    0.00      12.5  T
   8   -304.4425697  0.455042E-07  0.531E-04    0.00      13.1  T
   9   -304.4425698 -0.148035E-06  0.191E-04    0.00      36.2  T
     SCC iter.                  ...        0 min,  1.028 sec
     gradient                   ...        0 min,  0.947 sec
 * total energy  :  -298.8088546 Eh     change       -0.1045754E-02 Eh
   gradient norm :     0.0047032 Eh/α   predicted    -0.1014970E-02 (  -2.94%)
   displ. norm   :     0.8368386 α      lambda       -0.1001261E-02
   maximum displ.:     0.4332269 α      in ANC's #10, #23, #1, ...

........................................................................
.............................. CYCLE   36 ..............................
........................................................................

 iter      E             dE          RMSdq      gap      omega  full diag
   1   -304.4417651 -0.304442E+03  0.949E-02    0.00       0.0  T
   2   -304.4417651 -0.511644E-07  0.558E-02    0.00       1.0  T
   3   -304.4304466  0.113185E-01  0.135E-01    0.03       1.0  T
   4   -304.4413575 -0.109109E-01  0.263E-02    0.01       1.0  T
   5   -304.4417688 -0.411331E-03  0.115E-03    0.00       6.0  T
   6   -304.4417690 -0.197522E-06  0.630E-04    0.00      11.0  T
   7   -304.4417690 -0.196019E-08  0.413E-04    0.00      16.8  T
     SCC iter.                  ...        0 min,  0.799 sec
     gradient                   ...        0 min,  0.953 sec
 * total energy  :  -298.8097242 Eh     change       -0.8696400E-03 Eh
   gradient norm :     0.0050036 Eh/α   predicted    -0.8512242E-03 (  -2.12%)
   displ. norm   :     0.8114697 α      lambda       -0.8511657E-03
   maximum displ.:     0.4202527 α      in ANC's #10, #23, #1, ...

........................................................................
.............................. CYCLE   37 ..............................
........................................................................

 iter      E             dE          RMSdq      gap      omega  full diag
   1   -304.4447392 -0.304445E+03  0.928E-02    0.00       0.0  T
   2   -304.4444769  0.262267E-03  0.583E-02    0.00       1.0  T
   3   -304.2749726  0.169504E+00  0.533E-01    0.26       1.0  T
   4   -304.4421195 -0.167147E+00  0.651E-02    0.01       1.0  T
   5   -304.4439259 -0.180635E-02  0.364E-02    0.01       1.0  T
   6   -304.4447081 -0.782248E-03  0.771E-03    0.00       1.0  T
   7   -304.4447390 -0.309122E-04  0.252E-03    0.00       2.8  T
   8   -304.4447366  0.242018E-05  0.317E-03    0.00       2.2  T
   9   -304.4447385 -0.188806E-05  0.267E-03    0.00       2.6  T
  10   -304.4447425 -0.400736E-05  0.843E-04    0.00       8.2  T
  11   -304.4447430 -0.437353E-06  0.110E-04    0.00      62.8  T
  12   -304.4447430 -0.470061E-08  0.662E-05    0.00     104.8  T
     SCC iter.                  ...        0 min,  1.364 sec
     gradient                   ...        0 min,  0.947 sec
 * total energy  :  -298.8104424 Eh     change       -0.7181995E-03 Eh
   gradient norm :     0.0056223 Eh/α   predicted    -0.7058233E-03 (  -1.72%)
   displ. norm   :     0.7871221 α      lambda       -0.7031420E-03
   maximum displ.:     0.4173446 α      in ANC's #10, #23, #1, ...

........................................................................
.............................. CYCLE   38 ..............................
........................................................................

 iter      E             dE          RMSdq      gap      omega  full diag
   1   -304.4441628 -0.304444E+03  0.855E-02    0.00       0.0  T
   2   -304.4439449  0.217875E-03  0.539E-02    0.00       1.0  T
   3   -304.2778635  0.166081E+00  0.528E-01    0.24       1.0  T
   4   -304.4426498 -0.164786E+00  0.498E-02    0.01       1.0  T
   5   -304.4439814 -0.133165E-02  0.175E-02    0.00       1.0  T
   6   -304.4441611 -0.179638E-03  0.321E-03    0.00       2.2  T
   7   -304.4441645 -0.340245E-05  0.184E-03    0.00       3.8  T
   8   -304.4441597  0.477670E-05  0.330E-03    0.00       2.1  T
   9   -304.4441627 -0.304017E-05  0.247E-03    0.00       2.8  T
  10   -304.4441664 -0.366443E-05  0.466E-04    0.00      14.9  T
  11   -304.4441665 -0.119509E-06  0.154E-04    0.00      44.9  T
  12   -304.4441665 -0.140934E-07  0.321E-05    0.00     215.8  T
     SCC iter.                  ...        0 min,  1.365 sec
     gradient                   ...        0 min,  0.948 sec
 * total energy  :  -298.8110298 Eh     change       -0.5874207E-03 Eh
   gradient norm :     0.0046156 Eh/α   predicted    -0.5693919E-03 (  -3.07%)
   displ. norm   :     0.7407158 α      lambda       -0.5950788E-03
   maximum displ.:     0.3977102 α      in ANC's #10, #1, #23, ...

........................................................................
.............................. CYCLE   39 ..............................
........................................................................

 iter      E             dE          RMSdq      gap      omega  full diag
   1   -304.4484115 -0.304448E+03  0.807E-02    0.00       0.0  T
   2   -304.4484090  0.259131E-05  0.476E-02    0.00       1.0  T
   3   -304.4257757  0.226333E-01  0.193E-01    0.04       1.0  T
   4   -304.4482518 -0.224761E-01  0.169E-02    0.00       1.0  T
   5   -304.4484136 -0.161789E-03  0.152E-03    0.00       4.6  T
   6   -304.4484142 -0.584546E-06  0.797E-04    0.00       8.7  T
   7   -304.4484144 -0.209595E-06  0.374E-04    0.00      18.5  T
     SCC iter.                  ...        0 min,  0.797 sec
     gradient                   ...        0 min,  0.947 sec
 * total energy  :  -298.8115073 Eh     change       -0.4774927E-03 Eh
   gradient norm :     0.0048210 Eh/α   predicted    -0.4607917E-03 (  -3.50%)
   displ. norm   :     0.7060947 α      lambda       -0.5145200E-03
   maximum displ.:     0.3866021 α      in ANC's #10, #1, #23, ...

........................................................................
.............................. CYCLE   40 ..............................
........................................................................

 iter      E             dE          RMSdq      gap      omega  full diag
   1   -304.4486110 -0.304449E+03  0.726E-02    0.00       0.0  T
   2   -304.4484092  0.201761E-03  0.463E-02    0.00       1.0  T
   3   -304.2875067  0.160902E+00  0.521E-01    0.21       1.0  T
   4   -304.4476133 -0.160107E+00  0.407E-02    0.01       1.0  T
   5   -304.4485296 -0.916273E-03  0.119E-02    0.00       1.0  T
   6   -304.4486127 -0.830984E-04  0.138E-03    0.00       5.0  T
   7   -304.4486113  0.134594E-05  0.198E-03    0.00       3.5  T
   8   -304.4486076  0.371247E-05  0.315E-03    0.00       2.2  T
   9   -304.4486127 -0.508725E-05  0.130E-03    0.00       5.3  T
  10   -304.4486138 -0.103389E-05  0.293E-05    0.00     237.0  T
  11   -304.4486137  0.255325E-07  0.205E-04    0.00      33.9  T
  12   -304.4486138 -0.254048E-07  0.227E-05    0.00     304.8  T
     SCC iter.                  ...        0 min,  1.360 sec
     gradient                   ...        0 min,  0.953 sec
 * total energy  :  -298.8119321 Eh     change       -0.4247396E-03 Eh
   gradient norm :     0.0037248 Eh/α   predicted    -0.3855269E-03 (  -9.23%)
   displ. norm   :     0.6873595 α      lambda       -0.4598851E-03
   maximum displ.:     0.3755068 α      in ANC's #10, #1, #3, ...

........................................................................
.............................. CYCLE   41 ..............................
........................................................................

 iter      E             dE          RMSdq      gap      omega  full diag
   1   -304.4510555 -0.304451E+03  0.694E-02    0.00       0.0  T
   2   -304.4510556 -0.704047E-07  0.408E-02    0.00       1.0  T
   3   -304.4461731  0.488246E-02  0.900E-02    0.02       1.0  T
   4   -304.4505679 -0.439479E-02  0.287E-02    0.01       1.0  T
   5   -304.4510574 -0.489496E-03  0.101E-03    0.00       6.9  T
   6   -304.4510577 -0.259381E-06  0.508E-04    0.00      13.6  T
   7   -304.4510577 -0.394292E-07  0.270E-04    0.00      25.7  T
     SCC iter.                  ...        0 min,  0.801 sec
     gradient                   ...        0 min,  0.954 sec
 * total energy  :  -298.8123072 Eh     change       -0.3751059E-03 Eh
   gradient norm :     0.0054452 Eh/α   predicted    -0.3385882E-03 (  -9.74%)
   displ. norm   :     0.6843147 α      lambda       -0.4779007E-03
   maximum displ.:     0.3757654 α      in ANC's #10, #1, #3, ...

........................................................................
.............................. CYCLE   42 ..............................
........................................................................

 iter      E             dE          RMSdq      gap      omega  full diag
   1   -304.4520080 -0.304452E+03  0.660E-02    0.00       0.0  T
   2   -304.4519323  0.757076E-04  0.407E-02    0.00       1.0  T
   3   -304.3131511  0.138781E+00  0.483E-01    0.15       1.0  T
   4   -304.4519084 -0.138757E+00  0.134E-02    0.00       1.0  T
   5   -304.4520085 -0.100019E-03  0.229E-03    0.00       3.0  T
   6   -304.4520063  0.214642E-05  0.255E-03    0.00       2.7  T
   7   -304.4520095 -0.316788E-05  0.114E-03    0.00       6.1  T
   8   -304.4520102 -0.733074E-06  0.189E-04    0.00      36.6  T
   9   -304.4520102  0.464518E-07  0.300E-04    0.00      23.1  T
     SCC iter.                  ...        0 min,  1.031 sec
     gradient                   ...        0 min,  0.956 sec
 * total energy  :  -298.8126995 Eh     change       -0.3923634E-03 Eh
   gradient norm :     0.0049189 Eh/α   predicted    -0.3508493E-03 ( -10.58%)
   displ. norm   :     0.6811641 α      lambda       -0.4637618E-03
   maximum displ.:     0.3558520 α      in ANC's #10, #1, #3, ...
 * RMSD in coord.:     1.0555208 α      energy gain  -0.4079877E-01 Eh

generating ANC from model Hessian ...
Using Lindh-Hessian (1995)
 Shifting diagonal of input Hessian by    1.0002456812005320E-002
 Lowest  eigenvalues of input Hessian
    0.010000    0.000000    0.000000    0.000000    0.000000    0.000000
    0.000000    0.010011    0.010014    0.010026    0.010034    0.010107
    0.010158    0.010160    0.010175    0.010194    0.010200    0.010205
 Highest eigenvalues
    2.128601    2.135441    2.165360    2.188711    2.599673    2.599815


........................................................................
.............................. CYCLE   43 ..............................
........................................................................

 iter      E             dE          RMSdq      gap      omega  full diag
   1   -304.4538996 -0.304454E+03  0.631E-02    0.00       0.0  T
   2   -304.4536804  0.219165E-03  0.416E-02    0.00       1.0  T
   3   -304.2968848  0.156796E+00  0.517E-01    0.20       1.0  T
   4   -304.4529155 -0.156031E+00  0.404E-02    0.01       1.0  T
   5   -304.4536051 -0.689584E-03  0.222E-02    0.00       1.0  T
   6   -304.4538999 -0.294793E-03  0.158E-03    0.00       4.4  T
   7   -304.4538965  0.343390E-05  0.283E-03    0.00       2.4  T
   8   -304.4538974 -0.918530E-06  0.255E-03    0.00       2.7  T
   9   -304.4539009 -0.355402E-05  0.849E-04    0.00       8.2  T
  10   -304.4539014 -0.422215E-06  0.133E-04    0.00      52.0  T
  11   -304.4539014 -0.170337E-08  0.119E-04    0.00      58.4  T
     SCC iter.                  ...        0 min,  1.258 sec
     gradient                   ...        0 min,  0.952 sec
 * total energy  :  -298.8130881 Eh     change       -0.3885522E-03 Eh
   gradient norm :     0.0047427 Eh/α   predicted     0.0000000E+00 (-100.00%)
   displ. norm   :     0.0909859 α      lambda       -0.1379390E-03
   maximum displ.:     0.0386590 α      in ANC's #2, #1, #22, ...

........................................................................
.............................. CYCLE   44 ..............................
........................................................................

 iter      E             dE          RMSdq      gap      omega  full diag
   1   -304.4519615 -0.304452E+03  0.124E-02    0.00       0.0  T
   2   -304.4519330  0.284426E-04  0.102E-02    0.00       1.0  T
   3   -304.4317786  0.201544E-01  0.183E-01    0.04       1.0  T
   4   -304.4519607 -0.201821E-01  0.177E-03    0.00       3.9  T
   5   -304.4519616 -0.908724E-06  0.622E-04    0.00      11.2  T
   6   -304.4519617 -0.113244E-06  0.223E-04    0.00      31.1  T
     SCC iter.                  ...        0 min,  0.690 sec
     gradient                   ...        0 min,  0.950 sec
 * total energy  :  -298.8132005 Eh     change       -0.1123771E-03 Eh
   gradient norm :     0.0023760 Eh/α   predicted    -0.6956241E-04 ( -38.10%)
   displ. norm   :     0.3108600 α      lambda       -0.3255028E-03
   maximum displ.:     0.1301435 α      in ANC's #2, #10, #1, ...

........................................................................
.............................. CYCLE   45 ..............................
........................................................................

 iter      E             dE          RMSdq      gap      omega  full diag
   1   -304.4477461 -0.304448E+03  0.313E-02    0.00       0.0  T
   2   -304.4475816  0.164479E-03  0.250E-02    0.00       1.0  T
   3   -304.3582270  0.893547E-01  0.387E-01    0.10       1.0  T
   4   -304.4476939 -0.894669E-01  0.973E-03    0.00       1.0  T
   5   -304.4477460 -0.520932E-04  0.190E-03    0.00       3.6  T
   6   -304.4477468 -0.785003E-06  0.991E-04    0.00       7.0  T
   7   -304.4477473 -0.496621E-06  0.206E-04    0.00      33.7  T
     SCC iter.                  ...        0 min,  0.812 sec
     gradient                   ...        0 min,  0.957 sec
 * total energy  :  -298.8133976 Eh     change       -0.1971923E-03 Eh
   gradient norm :     0.0055554 Eh/α   predicted    -0.1784931E-03 (  -9.48%)
   displ. norm   :     0.3888022 α      lambda       -0.3413020E-03
   maximum displ.:     0.1646806 α      in ANC's #2, #1, #22, ...

........................................................................
.............................. CYCLE   46 ..............................
........................................................................

 iter      E             dE          RMSdq      gap      omega  full diag
   1   -304.4453484 -0.304445E+03  0.414E-02    0.00       0.0  T
   2   -304.4451527  0.195656E-03  0.305E-02    0.00       1.0  T
[...]
   184   1 H    0.999 --   180 C    0.984
   185   6 C    3.996 --   181 C    1.000   186 H    0.985   187 H    0.984
                           188 H    0.984
   186   1 H    0.999 --   185 C    0.985
   187   1 H    0.998 --   185 C    0.984
   188   1 H    0.999 --   185 C    0.984
   189   6 C    3.994 --   181 C    0.987   191 H    0.987   190 H    0.984
                           192 H    0.983
   190   1 H    0.998 --   189 C    0.984
   191   1 H    0.999 --   189 C    0.987
   192   1 H    0.999 --   189 C    0.983
   193   6 C    3.978 --   194 C    1.500    18 C    1.329   197 H    0.964
                           196 C    0.108
   194   6 C    3.981 --   193 C    1.500   195 C    1.372   198 H    0.971
   195   6 C    3.972 --   196 C    1.495   194 C    1.372   199 H    0.971
   196   6 C    3.986 --   195 C    1.495    19 C    1.344   200 H    0.963
                           193 C    0.108
   197   1 H    0.998 --   193 C    0.964
   198   1 H    0.998 --   194 C    0.971
   199   1 H    0.998 --   195 C    0.971
   200   1 H    0.999 --   196 C    0.963
   201   6 C    3.978 --   202 C    1.500     8 C    1.329   205 H    0.964
                           204 C    0.108
   202   6 C    3.981 --   201 C    1.500   203 C    1.372   206 H    0.971
   203   6 C    3.972 --   204 C    1.495   202 C    1.372   207 H    0.971
   204   6 C    3.986 --   203 C    1.495     9 C    1.344   208 H    0.963
                           201 C    0.108
   205   1 H    0.998 --   201 C    0.964
   206   1 H    0.998 --   202 C    0.971
   207   1 H    0.998 --   203 C    0.971
   208   1 H    0.999 --   204 C    0.963
 ---------------------------------------------------------------------------

Topologies differ in total number of bonds
Writing topology from bond orders to xtbtopo.mol

molecular dipole:
                 x           y           z       tot (Debye)
 q only:        0.014       0.348       0.019
   full:        0.016       0.392       0.021       0.998
molecular quadrupole (traceless):
                xx          xy          yy          xz          yz          zz
 q only:        7.005       0.562     -12.422     -25.320       0.064       5.417
  q+dip:       24.653      -2.380     -55.661     -16.511      -3.973      31.008
   full:       11.611      -0.386     -24.174     -19.943      -1.161      12.563

           -------------------------------------------------
          |                Geometry Summary                 |
           -------------------------------------------------

      molecular mass/u    :     1507.9815037
   center of mass at/Å    :        0.0354927       0.8753022       0.0460447
  moments of inertia/u·Å² :        0.2334726E+05   0.9523436E+05   0.1130847E+06
rotational constants/cm⁻¹ :        0.7220391E-03   0.1770121E-03   0.1490708E-03

 * 208 selected distances

     #   Z          #   Z                                           value/Å
     1   6 C        2   6 C                                       1.4083941
     2   6 C        3   6 C                                       1.4235969
     3   6 C        4   6 C                                       1.4251233
     4   6 C        5   6 C                                       1.4083907
     1   6 C        6   6 C                                       1.4251213
     5   6 C        6   6 C                                       1.4235948
     6   6 C        7   6 C                                       1.3947166
     8   6 C        9   6 C                                       1.4158198
     5   6 C       10   6 C                                       1.4123884
    10   6 C       11   6 C                                       1.3926967
    11   6 C       12   6 C                                       1.3916829
     4   6 C       13   6 C                                       1.4069942
    12   6 C       13   6 C                                       1.4181693
    11   6 C       14   1 H                                       1.0772162
    13   6 C       15   6 C                                       1.4178778
    15   6 C       16   6 C                                       1.4192365
     3   6 C       17   6 C                                       1.3947163
    18   6 C       19   6 C                                       1.4158199
     2   6 C       20   6 C                                       1.4123912
    20   6 C       21   6 C                                       1.3926982
    21   6 C       22   6 C                                       1.3916836
     1   6 C       23   6 C                                       1.4069960
    22   6 C       23   6 C                                       1.4181625
    21   6 C       24   1 H                                       1.0772153
    23   6 C       25   6 C                                       1.4178787
    25   6 C       26   6 C                                       1.4192389
    27   6 C       28   6 C                                       1.3840331
    16   6 C       29   6 C                                       1.3999730
    28   6 C       29   6 C                                       1.3790152
    15   6 C       30   6 C                                       1.4177608
    27   6 C       30   6 C                                       1.3953044
    27   6 C       31   1 H                                       1.0790749
    28   6 C       32   1 H                                       1.0805382
    29   6 C       33   1 H                                       1.0784953
    34   6 C       35   6 C                                       1.3924968
    36   6 C       37   6 C                                       1.4091078
    37   6 C       38   6 C                                       1.4333717
    38   6 C       39   6 C                                       1.4145977
    39   6 C       40   6 C                                       1.4033451
    40   6 C       41   6 C                                       1.3782510
    41   6 C       42   6 C                                       1.4010233
    38   6 C       43   6 C                                       1.4030900
    42   6 C       43   6 C                                       1.3711490
    40   6 C       44   1 H                                       1.0756120
    42   6 C       45   1 H                                       1.0797811
    43   6 C       46   1 H                                       1.0795437
    37   6 C       47   6 C                                       1.4299131
    47   6 C       48   6 C                                       1.4173710
    48   6 C       49   6 C                                       1.4167660
    36   6 C       50   6 C                                       1.4010729
    49   6 C       50   6 C                                       1.3897658
    50   6 C       51   1 H                                       1.0762332
    52   6 C       53   6 C                                       1.4173080
    53   6 C       54   6 C                                       1.4165114
    48   6 C       55   6 C                                       1.4193226
    52   6 C       55   6 C                                       1.4166103
    47   6 C       56   6 C                                       1.4017459
    55   6 C       57   6 C                                       1.4050031
    56   6 C       58   6 C                                       1.3906388
    57   6 C       58   6 C                                       1.3827660
    56   6 C       59   1 H                                       1.0776644
    57   6 C       60   1 H                                       1.0771608
    61   6 C       62   6 C                                       1.5355625
    61   6 C       63   1 H                                       1.0865841
    61   6 C       64   1 H                                       1.0881028
    61   6 C       65   1 H                                       1.0884340
    62   6 C       66   6 C                                       1.5347453
    66   6 C       67   1 H                                       1.0881254
    66   6 C       68   1 H                                       1.0880652
    66   6 C       69   1 H                                       1.0867870
    62   6 C       70   6 C                                       1.5308076
    70   6 C       71   1 H                                       1.0883075
    70   6 C       72   1 H                                       1.0874610
    70   6 C       73   1 H                                       1.0877084
    53   6 C       75   6 C                                       1.4096860
    74   6 C       75   6 C                                       1.3666535
    54   6 C       76   6 C                                       1.4005913
    74   6 C       77   6 C                                       1.4053871
    76   6 C       77   6 C                                       1.3789738
    74   6 C       78   1 H                                       1.0795904
    75   6 C       79   1 H                                       1.0803111
    76   6 C       80   1 H                                       1.0756577
    81   6 C       82   6 C                                       1.5357256
    81   6 C       83   1 H                                       1.0863839
    81   6 C       84   1 H                                       1.0881141
    81   6 C       85   1 H                                       1.0882438
    82   6 C       86   6 C                                       1.5353132
    86   6 C       87   1 H                                       1.0881713
    86   6 C       88   1 H                                       1.0880962
    86   6 C       89   1 H                                       1.0864728
    82   6 C       90   6 C                                       1.5316113
    90   6 C       91   1 H                                       1.0883143
    90   6 C       92   1 H                                       1.0877897
    90   6 C       93   1 H                                       1.0877631
    94   6 C       95   6 C                                       1.2048302
    94   6 C       96   1 H                                       1.0490036 (min)
    97   6 C       98   6 C                                       1.5347414
    97   6 C       99   1 H                                       1.0881542
    97   6 C      100   1 H                                       1.0880218
    97   6 C      101   1 H                                       1.0866673
    98   6 C      102   6 C                                       1.5318656
   102   6 C      103   1 H                                       1.0879206
   102   6 C      104   1 H                                       1.0882219
   102   6 C      105   1 H                                       1.0875636
    98   6 C      106   6 C                                       1.5356503
   106   6 C      107   1 H                                       1.0879509
   106   6 C      108   1 H                                       1.0882863
   106   6 C      109   1 H                                       1.0864631
   110   6 C      111   6 C                                       1.3840335
    26   6 C      112   6 C                                       1.3999705
   111   6 C      112   6 C                                       1.3790125
    25   6 C      113   6 C                                       1.4177686
   110   6 C      113   6 C                                       1.3953067
   110   6 C      114   1 H                                       1.0790736
   111   6 C      115   1 H                                       1.0805387
   112   6 C      116   1 H                                       1.0784952
   117   6 C      118   6 C                                       1.3925028
   119   6 C      120   6 C                                       1.4091119
   120   6 C      121   6 C                                       1.4333561
   121   6 C      122   6 C                                       1.4145931
   122   6 C      123   6 C                                       1.4033502
   123   6 C      124   6 C                                       1.3782456
   124   6 C      125   6 C                                       1.4010263
   121   6 C      126   6 C                                       1.4030972
   125   6 C      126   6 C                                       1.3711426
   123   6 C      127   1 H                                       1.0756120
   125   6 C      128   1 H                                       1.0797807
   126   6 C      129   1 H                                       1.0795417
   120   6 C      130   6 C                                       1.4299136
   130   6 C      131   6 C                                       1.4173624
   131   6 C      132   6 C                                       1.4167674
   119   6 C      133   6 C                                       1.4010834
   132   6 C      133   6 C                                       1.3897783
   133   6 C      134   1 H                                       1.0762318
   135   6 C      136   6 C                                       1.4173082
   136   6 C      137   6 C                                       1.4165205
   131   6 C      138   6 C                                       1.4193177
   135   6 C      138   6 C                                       1.4166017
   130   6 C      139   6 C                                       1.4017417
   138   6 C      140   6 C                                       1.4050030
   139   6 C      141   6 C                                       1.3906413
   140   6 C      141   6 C                                       1.3827692
   139   6 C      142   1 H                                       1.0776687
   140   6 C      143   1 H                                       1.0771616
   144   6 C      145   6 C                                       1.5355560
   144   6 C      146   1 H                                       1.0865833
   144   6 C      147   1 H                                       1.0881036
   144   6 C      148   1 H                                       1.0884334
   145   6 C      149   6 C                                       1.5347509
   149   6 C      150   1 H                                       1.0881265
   149   6 C      151   1 H                                       1.0880645
   149   6 C      152   1 H                                       1.0867884
   145   6 C      153   6 C                                       1.5308088
   153   6 C      154   1 H                                       1.0883075
   153   6 C      155   1 H                                       1.0874602
   153   6 C      156   1 H                                       1.0877091
   136   6 C      158   6 C                                       1.4096858
   157   6 C      158   6 C                                       1.3666491
   137   6 C      159   6 C                                       1.4005959
   157   6 C      160   6 C                                       1.4053855
   159   6 C      160   6 C                                       1.3789726
   157   6 C      161   1 H                                       1.0795902
   158   6 C      162   1 H                                       1.0803105
   159   6 C      163   1 H                                       1.0756559
   164   6 C      165   6 C                                       1.5357266 (max)
   164   6 C      166   1 H                                       1.0863883
   164   6 C      167   1 H                                       1.0881139
   164   6 C      168   1 H                                       1.0882446
   165   6 C      169   6 C                                       1.5353122
   169   6 C      170   1 H                                       1.0881702
   169   6 C      171   1 H                                       1.0880962
   169   6 C      172   1 H                                       1.0864675
   165   6 C      173   6 C                                       1.5316084
   173   6 C      174   1 H                                       1.0883139
   173   6 C      175   1 H                                       1.0877911
   173   6 C      176   1 H                                       1.0877593
   177   6 C      178   6 C                                       1.2048271
   177   6 C      179   1 H                                       1.0490061
   180   6 C      181   6 C                                       1.5347423
   180   6 C      182   1 H                                       1.0881543
   180   6 C      183   1 H                                       1.0880215
   180   6 C      184   1 H                                       1.0866659
   181   6 C      185   6 C                                       1.5318641
   185   6 C      186   1 H                                       1.0879203
   185   6 C      187   1 H                                       1.0882221
   185   6 C      188   1 H                                       1.0875645
   181   6 C      189   6 C                                       1.5356497
   189   6 C      190   1 H                                       1.0879506
   189   6 C      191   1 H                                       1.0882866
   189   6 C      192   1 H                                       1.0864642
    18   6 C      193   6 C                                       1.4044498
   193   6 C      194   6 C                                       1.3733956
   194   6 C      195   6 C                                       1.3920683
    19   6 C      196   6 C                                       1.4010129
   195   6 C      196   6 C                                       1.3739678
   193   6 C      197   1 H                                       1.0790585
   194   6 C      198   1 H                                       1.0801241
   195   6 C      199   1 H                                       1.0801170
   196   6 C      200   1 H                                       1.0791177
     8   6 C      201   6 C                                       1.4044488
   201   6 C      202   6 C                                       1.3733975
   202   6 C      203   6 C                                       1.3920675
     9   6 C      204   6 C                                       1.4010096
   203   6 C      204   6 C                                       1.3739683
   201   6 C      205   1 H                                       1.0790582
   202   6 C      206   1 H                                       1.0801242
   203   6 C      207   1 H                                       1.0801171
   204   6 C      208   1 H                                       1.0791185

 * 2 distinct bonds (by element types)

   Z      Z             #   av. dist./Å        max./Å        min./Å
   1 H    6 C          90     1.0833883     1.0884340     1.0490036
   6 C    6 C         118     1.4191703     1.5357266     1.2048271


optimized geometry written to: xtbopt.xyz


           -------------------------------------------------
          | TOTAL ENERGY             -298.824336081093 Eh   |
          | GRADIENT NORM               0.000181626629 Eh/α |
          | HOMO-LUMO GAP               0.001910017398 eV   |
           -------------------------------------------------

------------------------------------------------------------------------
 * finished run on 2024/09/25 at 02:39:39.197     
------------------------------------------------------------------------
 total:
 * wall-time:     0 d,  0 h,  9 min, 52.766 sec
 *  cpu-time:     0 d,  0 h, 15 min,  3.708 sec
 * ratio c/w:     1.525 speedup
 SCF:
 * wall-time:     0 d,  0 h,  0 min,  3.644 sec
 *  cpu-time:     0 d,  0 h,  0 min,  6.278 sec
 * ratio c/w:     1.723 speedup
 ANC optimizer:
 * wall-time:     0 d,  0 h,  9 min, 48.920 sec
 *  cpu-time:     0 d,  0 h, 14 min, 57.169 sec
 * ratio c/w:     1.523 speedup

