208
 energy: -298.824336081093 gnorm: 0.000181626629 xtb: 6.6.1 (8d0f1dd)
C            0.78181072803136        0.34753267820567        1.20465765425790
C           -0.62266292314571        0.27369946774724        1.27933044496920
C           -1.40568361473963        0.39940192467365        0.09708454457399
C           -0.74648603895139        0.53643384736543       -1.15896358317161
C            0.64766707294995        0.35721899476860       -1.24718528581676
C            1.43316182692114        0.29217338335325       -0.06169434573973
C            2.82470991154231        0.24586272712333       -0.14344573275782
C            3.41239923312378       -0.15574520320808       -1.39670553395833
C            2.64911198336728       -0.08595928850928       -2.58711211324171
C            1.26518411300563        0.32161198013356       -2.51692757791591
C            0.51336109771742        0.67213571701624       -3.63563169548305
C           -0.82368243176513        1.04682078370462       -3.54232219083830
C           -1.49498062734651        0.84673326712011       -2.30922546198100
H            0.97210398554019        0.65070476537143       -4.61004953572744
C           -2.88585225819484        1.09815752962593       -2.19680192651737
C           -3.53131991652947        0.98422083618557       -0.93798426868061
C           -2.79674467710511        0.45767526283676        0.17946473076785
C           -3.42053129153166       -0.02619116322074        1.38531877470599
C           -2.65930902737088       -0.14577172140085        2.57308419746821
C           -1.24654819109189        0.15316091005827        2.54071308561306
C           -0.47358931534757        0.32012854263289        3.68712671813713
C            0.88983881095835        0.59290588444104        3.62848276218966
C            1.54802767070437        0.47166083540444        2.37817421003907
H           -0.93675254367726        0.23214798396726        4.65569872562511
C            2.95518025269461        0.62004020558777        2.28715314780744
C            3.59471508771606        0.58899034815637        1.02055545845942
C           -4.89328735972672        2.03432896386606       -3.15307182205687
C           -5.46590206675217        2.06717310843930       -1.89347622960126
C           -4.82123948231713        1.51253043522192       -0.80790536520963
C           -3.61645092251399        1.50432971619253       -3.34191990405711
H           -5.40762705229565        2.50560327634226       -3.97633216436515
H           -6.42935062736627        2.53751270564263       -1.75890257870712
H           -5.28385467492240        1.56628150813034        0.16484841922080
C           -1.56791400091330        1.54494511170963       -4.66984363249873
C           -2.95960134406927        1.52211424381034       -4.62822439140626
C           -3.68243587121146        1.50980141751564       -5.87546794573680
C           -3.00846613526784        1.81547414292032       -7.07459825991943
C           -1.70070159748783        2.39437124992041       -6.97876468651461
C           -0.94659805141741        2.18580378342252       -5.80024284404889
C            0.31741047555555        2.78577338164634       -5.69209447969878
C            0.88143340733016        3.52131577717323       -6.71210963055821
C            0.10128111808282        3.75433765791400       -7.85225395112324
C           -1.16302594772746        3.23571132413060       -7.96451970212971
H            0.82616522153209        2.72022205186375       -4.74667782855729
H            0.47305860614312        4.39013492112439       -8.64185527458853
H           -1.78089598642116        3.52603557254149       -8.80079888236452
C           -3.65890189168491        1.55479272773825       -8.32104502177024
C           -5.05257549991515        1.29693928440091       -8.33225703359880
C           -5.74893729430673        1.09561477840402       -7.11497557154088
C           -5.01374072746681        1.07736656511448       -5.93573785970888
H           -5.46404866801584        0.68781941610484       -5.03921483641056
C           -7.10966933455953        0.91784419701359       -9.60112111306479
C           -7.83974593445947        0.79746883358025       -8.39229549074348
C           -7.17565248495771        0.87777038444542       -7.14368194108949
C           -5.71413806417852        1.16043988926803       -9.58052749213869
C           -2.95672701537554        1.48620109487375       -9.53229923232186
C           -4.97354150882868        1.23875742823185      -10.77192018541077
C           -3.59581259257112        1.35612212729574      -10.76051952897634
H           -1.87982625014103        1.50091990848517       -9.49450580724934
H           -5.52126921784803        1.15268402461251      -11.69542486890855
C           -1.91026258647259        2.61926033529481      -12.09279319977249
C           -2.75748047482092        1.34010501807334      -12.03006218322743
H           -1.20620172562346        2.67163290049758      -11.26682691029917
H           -1.34362232988523        2.64743055682356      -13.02128268244924
H           -2.55182002876676        3.49769771859505      -12.05484462040842
C           -1.83953755287823        0.11044147172467      -12.00265638464404
H           -2.43297545366686       -0.80003651345580      -11.94900931793163
H           -1.23309706100962        0.07512719401647      -12.90535701508376
H           -1.17290108712442        0.13332541835176      -11.14464825804314
C           -3.61365680042792        1.27451871452928      -13.29735538063391
H           -2.96725438669390        1.28384081952855      -14.17284953781406
H           -4.20334421215979        0.36125939058016      -13.32559308566939
H           -4.28124146907540        2.13083460268228      -13.36187844479425
C           -9.94350623162118        0.51490420043436       -7.23003698863245
C           -9.23565635039391        0.60091067115543       -8.39592414039873
C           -7.93887171504800        0.80037670135717       -5.97186188749827
C           -9.30668442382668        0.62558620418265       -5.98211068661147
H          -11.01206216690338        0.36904861455197       -7.27932665752943
H           -9.74127131483922        0.52843573731312       -9.34785517805478
H           -7.43137004077584        0.89867905332179       -5.02856023281684
C          -11.17835993000254        1.69085963159952       -4.73963826862989
C          -10.13904414473591        0.56057465696207       -4.71259469388121
H          -11.85002205345471        1.59333937503177       -5.58792455475153
H          -11.77505552915943        1.67295964601297       -3.82989871927900
H          -10.68155485010978        2.65666333017131       -4.80806591943588
C          -10.85057542141062       -0.79853712620750       -4.65156626820306
H          -10.12020198203338       -1.60517175873557       -4.64812928921304
H          -11.44745251144632       -0.86875304399799       -3.74450471068071
H          -11.50948720678919       -0.93979258222815       -5.50380163121935
C           -9.29935738319922        0.71846142747168       -3.44144141583402
H           -9.94956281045673        0.66655895463240       -2.57025434930899
H           -8.56095596459110       -0.07565080454884       -3.35521264998535
H           -8.79251619992774        1.68077353539489       -3.42424468278204
C           -8.34774161895877        0.70443626535610      -11.88771760383402
C           -7.77771334727000        0.80033928073307      -10.83060557482889
H           -8.84616373655759        0.61930087795097      -12.80681262083892
C            2.16780729445242        5.65234218179337       -6.65377360760070
C            2.27421150819365        4.12176046620103       -6.61597750077912
H            1.55889917841403        6.00680932175199       -5.82451897384153
H            3.15648196140828        6.09919223485433       -6.57229619187820
H            1.71420450900652        5.99463649485267       -7.58001590165030
C            3.00526611482523        3.72042936933958       -5.33102452422793
H            3.09142583973285        2.63921631515821       -5.24661027577494
H            4.01075122695052        4.13647231765198       -5.34262715822243
H            2.49703604486893        4.10483218797232       -4.44970107879136
C            3.10654117484229        3.62811781316310       -7.80835563054511
H            4.11403981320433        4.03532508918448       -7.75576680471396
H            3.17329571755581        2.54194919457645       -7.79617165768474
H            2.66724392156460        3.93227710451452       -8.75435084649621
C            5.02769142251036        1.28331384640962        3.32895785810592
C            5.60651502411882        1.40367298748360        2.07754857931760
C            4.92374981117752        1.02188058189753        0.94188080026936
C            3.71133365353430        0.84133761009799        3.46585030820723
H            5.57495169601832        1.62104066339731        4.19547173722213
H            6.60545247256359        1.80611826607224        1.98965370307157
H            5.39339118830383        1.14130668704644       -0.02161604372733
C            1.66710710363567        0.90603643824267        4.79943194890144
C            3.05254547002449        0.77511509866547        4.74959356457751
C            3.76664943414424        0.57175052867769        5.98530031453962
C            3.11441331986424        0.80150260353558        7.21306167820841
C            1.85810924656182        1.49101657358720        7.18513509884189
C            1.09479465295582        1.47102342714570        5.99432676559398
C           -0.11594879028052        2.17956542802743        5.95611840745702
C           -0.62307126717420        2.84539417685132        7.05113408666072
C            0.16824110740674        2.89139624693104        8.20637553400288
C            1.38589509415943        2.26310078494454        8.25732028192153
H           -0.62410350571408        2.25668467539299        5.01125211498019
H           -0.15438109154362        3.46727196208463        9.06089770746722
H            2.02148490281611        2.41153200527915        9.11720627927817
C            3.73649178966129        0.35830976561576        8.42188380746508
C            5.10495302049365       -0.01010930618814        8.39958617947656
C            5.78792119880661       -0.13657821217079        7.16476246165034
C            5.05849494381992        0.02943856902367        5.99349853050231
H            5.47966946169830       -0.29782080797699        5.05873225390507
C            7.11996071206072       -0.68425076059626        9.61222299226700
C            7.84299151794521       -0.73410375739980        8.39423153336548
C            7.19244683556591       -0.46991861855141        7.16397642033360
C            5.74828825317559       -0.33048866738610        9.62348939109618
C            3.02594114161721        0.21775857528654        9.62198486390834
C            5.01130165273558       -0.32018325705725       10.81964056928712
C            3.64737291995836       -0.09280804676704       10.82666482982524
H            1.95383101782647        0.32245918235878        9.59056364879299
H            5.54653240387265       -0.54717879278371       11.72643597920457
C            2.06158982599605        1.15117109151314       12.29291623877076
C            2.80501326387967       -0.17714150522095       12.09082941834607
H            1.36758342361867        1.34693596042868       11.48008522821657
H            1.49482257994996        1.12506871880216       13.22138956986848
H            2.77092049633927        1.97499964480551       12.34624098003610
C            1.79262012575182       -1.32025845430820       11.93654475245533
H            2.31225698646526       -2.26397231341453       11.78357140344681
H            1.18157021324585       -1.40343448664542       12.83297311822742
H            1.13345147340773       -1.15329026290315       11.08876700331719
C            3.64787483056940       -0.44487783661963       13.34034005246684
H            3.00053453090060       -0.47737151249311       14.21458694569150
H            4.16303928999797       -1.39989782419259       13.26884247958969
H            4.38108225698232        0.34398292875678       13.49270970003527
C            9.92221448028865       -1.05934439137229        7.19942866006043
C            9.21879675180285       -1.04042697175574        8.37099809277202
C            7.95171576326095       -0.48441326148273        5.98712929459662
C            9.30116110460932       -0.76788955973732        5.97286645404632
H           10.97559296200078       -1.29401200478695        7.22840506823075
H            9.71322274703087       -1.25266473602374        9.30778438781192
H            7.45744257042355       -0.24739575083672        5.06162829787102
C           11.25536428043901        0.27111552314155        4.84031254314230
C           10.13074671347856       -0.76520942352921        4.69987899088619
H           11.91371605904461        0.03338071249737        5.67115211863686
H           11.85262174941313        0.30134763251916        3.93126845627663
H           10.83552727483243        1.26050144119393        5.01098337729468
C           10.73376393377167       -2.16207840080493        4.49418378746979
H            9.94242787722627       -2.90425444850383        4.41006451647302
H           11.32650599227244       -2.18382686191150        3.58196834593818
H           11.37658784047072       -2.44265942059685        5.32392061941502
C            9.31096036557814       -0.41021332116613        3.45579221208620
H            9.95833569603886       -0.42232741728679        2.58104350985598
H            8.51254280911910       -1.13034561996978        3.29078266562180
H            8.88167893967174        0.58561878285004        3.54097458429452
C            8.32805141916898       -1.23567086305106       11.85795852257826
C            7.77156923420438       -0.98366179290076       10.81948512119699
H            8.81431762685584       -1.45683727914733       12.76075648174822
C           -1.73225560230978        5.06765742980461        7.22648965429468
C           -1.96214357731640        3.56360511955290        7.02546290341120
H           -1.09269870275637        5.45830748239870        6.43754163057510
H           -2.68107650286139        5.59932837279769        7.19724057326313
H           -1.25682132306243        5.27095938625971        8.18224755180123
C           -2.71730405157297        3.36273986902401        5.70789207266573
H           -2.89055967769460        2.30735544581136        5.50860187171644
H           -3.68574052223121        3.85543241694877        5.76799097887082
H           -2.17539281181299        3.79667146048164        4.87073508257503
C           -2.83727472892334        3.01424862265819        8.16149652242419
H           -3.80816062687864        3.50516266697344        8.15700325448475
H           -2.99187529029835        1.94465862744190        8.03326471215203
H           -2.37909871383755        3.17863694727189        9.13281288799741
C           -4.74290072081521       -0.49926219675965        1.38998310355079
C           -5.33362374899263       -0.96123835293056        2.54056533226031
C           -4.61344864413141       -0.98098882304317        3.73170407953772
C           -3.29230927108652       -0.60368363627987        3.73603913197936
H           -5.28667848381001       -0.55275882247651        0.45949346498351
H           -6.34997554011099       -1.32618475417771        2.51796088413877
H           -5.07974086796698       -1.33346209235333        4.63999180001326
H           -2.72654608063599       -0.70126132849626        4.64975976659094
C            4.69203054948292       -0.73134998478846       -1.45752376461086
C            5.24821352811966       -1.11465746758585       -2.65333153964754
C            4.53388967479087       -0.94906897306569       -3.83662084457459
C            3.24778609858520       -0.46741471026348       -3.79496505589382
H            5.22570859108686       -0.92751820265624       -0.54042386614514
H            6.23149325793107       -1.56119382560565       -2.67417114161844
H            4.97387986533983       -1.23963054709973       -4.77929538137504
H            2.67985026919393       -0.42097537885576       -4.71136501943604
