 Entering Gaussian System, Link 0=g16
 Initial command:
 /gpfs/research/software/gaussian16/amd/g16/l1.exe "/gpfs/home/gdb20/code/input_macros/temp/h2o2_b3lyp_6-31++Gdp/Gau-2030347.inp" -scrdir="/gpfs/home/gdb20/code/input_macros/temp/h2o2_b3lyp_6-31++Gdp/"
 Entering Link 1 = /gpfs/research/software/gaussian16/amd/g16/l1.exe PID=   2030349.
  
 Copyright (c) 1988-2019, Gaussian, Inc.  All Rights Reserved.
  
 This is part of the Gaussian(R) 16 program.  It is based on
 the Gaussian(R) 09 system (copyright 2009, Gaussian, Inc.),
 the Gaussian(R) 03 system (copyright 2003, Gaussian, Inc.),
 the Gaussian(R) 98 system (copyright 1998, Gaussian, Inc.),
 the Gaussian(R) 94 system (copyright 1995, Gaussian, Inc.),
 the Gaussian 92(TM) system (copyright 1992, Gaussian, Inc.),
 the Gaussian 90(TM) system (copyright 1990, Gaussian, Inc.),
 the Gaussian 88(TM) system (copyright 1988, Gaussian, Inc.),
 the Gaussian 86(TM) system (copyright 1986, Carnegie Mellon
 University), and the Gaussian 82(TM) system (copyright 1983,
 Carnegie Mellon University). Gaussian is a federally registered
 trademark of Gaussian, Inc.
  
 This software contains proprietary and confidential information,
 including trade secrets, belonging to Gaussian, Inc.
  
 This software is provided under written license and may be
 used, copied, transmitted, or stored only in accord with that
 written license.
  
 The following legend is applicable only to US Government
 contracts under FAR:
  
                    RESTRICTED RIGHTS LEGEND
  
 Use, reproduction and disclosure by the US Government is
 subject to restrictions as set forth in subparagraphs (a)
 and (c) of the Commercial Computer Software - Restricted
 Rights clause in FAR 52.227-19.
  
 Gaussian, Inc.
 340 Quinnipiac St., Bldg. 40, Wallingford CT 06492
  
  
 ---------------------------------------------------------------
 Warning -- This program may not be used in any manner that
 competes with the business of Gaussian, Inc. or will provide
 assistance to any competitor of Gaussian, Inc.  The licensee
 of this program is prohibited from giving any competitor of
 Gaussian, Inc. access to this program.  By using this program,
 the user acknowledges that Gaussian, Inc. is engaged in the
 business of creating and licensing software in the field of
 computational chemistry and represents and warrants to the
 licensee that it is not a competitor of Gaussian, Inc. and that
 it will not use this program in any manner prohibited above.
 ---------------------------------------------------------------
  

 Cite this work as:
 Gaussian 16, Revision C.01,
 M. J. Frisch, G. W. Trucks, H. B. Schlegel, G. E. Scuseria, 
 M. A. Robb, J. R. Cheeseman, G. Scalmani, V. Barone, 
 G. A. Petersson, H. Nakatsuji, X. Li, M. Caricato, A. V. Marenich, 
 J. Bloino, B. G. Janesko, R. Gomperts, B. Mennucci, H. P. Hratchian, 
 J. V. Ortiz, A. F. Izmaylov, J. L. Sonnenberg, D. Williams-Young, 
 F. Ding, F. Lipparini, F. Egidi, J. Goings, B. Peng, A. Petrone, 
 T. Henderson, D. Ranasinghe, V. G. Zakrzewski, J. Gao, N. Rega, 
 G. Zheng, W. Liang, M. Hada, M. Ehara, K. Toyota, R. Fukuda, 
 J. Hasegawa, M. Ishida, T. Nakajima, Y. Honda, O. Kitao, H. Nakai, 
 T. Vreven, K. Throssell, J. A. Montgomery, Jr., J. E. Peralta, 
 F. Ogliaro, M. J. Bearpark, J. J. Heyd, E. N. Brothers, K. N. Kudin, 
 V. N. Staroverov, T. A. Keith, R. Kobayashi, J. Normand, 
 K. Raghavachari, A. P. Rendell, J. C. Burant, S. S. Iyengar, 
 J. Tomasi, M. Cossi, J. M. Millam, M. Klene, C. Adamo, R. Cammi, 
 J. W. Ochterski, R. L. Martin, K. Morokuma, O. Farkas, 
 J. B. Foresman, and D. J. Fox, Gaussian, Inc., Wallingford CT, 2019.
 
 ******************************************
 Gaussian 16:  EM64L-G16RevC.01  3-Jul-2019
                 5-Oct-2024 
 ******************************************
 %nprocshared=1
 Will use up to    1 processors via shared memory.
 %mem=2gb
 %chk=/gpfs/home/gdb20/code/input_macros/temp/h2o2_b3lyp_6-31++Gdp/h2o2_b3lyp_6-3
 1++Gdp.chk
 ---------------------------
 #ub3lyp/6-31g(d,p) OPT FREQ
 ---------------------------
 1/18=20,19=15,26=3,38=1/1,3;
 2/9=110,12=2,17=6,18=5,40=1/2;
 3/5=1,6=6,7=101,11=2,25=1,30=1,71=1,74=-5,116=2/1,2,3;
 4//1;
 5/5=2,38=5/2;
 6/7=2,8=2,9=2,10=2,28=1/1;
 7//1,2,3,16;
 1/18=20,19=15,26=3/3(2);
 2/9=110/2;
 99//99;
 2/9=110/2;
 3/5=1,6=6,7=101,11=2,25=1,30=1,71=1,74=-5,116=2/1,2,3;
 4/5=5,16=3,69=1/1;
 5/5=2,38=5/2;
 7//1,2,3,16;
 1/18=20,19=15,26=3/3(-5);
 2/9=110/2;
 6/7=2,8=2,9=2,10=2,19=2,28=1/1;
 99/9=1/99;
 ---------------------------
 created with so and so tool
 ---------------------------
 Symbolic Z-matrix:
 Charge =  0 Multiplicity = 1
 O                    -1.682     2.047     0. 
 O                    -0.129     1.364     0. 
 H                    -2.824     1.447     0. 
 H                     0.9176    2.2       0. 
 
 Add virtual bond connecting atoms H3         and O1         Dist= 2.44D+00.
 Add virtual bond connecting atoms H4         and O2         Dist= 2.53D+00.
 Add virtual bond connecting atoms O2         and O1         Dist= 3.21D+00.

 GradGradGradGradGradGradGradGradGradGradGradGradGradGradGradGradGradGrad
 Berny optimization.
 Initialization pass.
                           ----------------------------
                           !    Initial Parameters    !
                           ! (Angstroms and Degrees)  !
 --------------------------                            --------------------------
 ! Name  Definition              Value          Derivative Info.                !
 --------------------------------------------------------------------------------
 ! R1    R(1,2)                  1.6966         estimate D2E/DX2                !
 ! R2    R(1,3)                  1.29           estimate D2E/DX2                !
 ! R3    R(2,4)                  1.3395         estimate D2E/DX2                !
 ! A1    A(2,1,3)              128.5432         estimate D2E/DX2                !
 ! A2    A(1,2,4)              117.6433         estimate D2E/DX2                !
 ! D1    D(3,1,2,4)            180.0            estimate D2E/DX2                !
 --------------------------------------------------------------------------------
 Trust Radius=3.00D-01 FncErr=1.00D-07 GrdErr=1.00D-06 EigMax=2.50D+02 EigMin=1.00D-04
 Number of steps in this run=     20 maximum allowed number of steps=    100.
 GradGradGradGradGradGradGradGradGradGradGradGradGradGradGradGradGradGrad

                          Input orientation:                          
 ---------------------------------------------------------------------
 Center     Atomic      Atomic             Coordinates (Angstroms)
 Number     Number       Type             X           Y           Z
 ---------------------------------------------------------------------
      1          8           0       -1.682000    2.047000    0.000000
      2          8           0       -0.129000    1.364000    0.000000
      3          1           0       -2.824000    1.447000    0.000000
      4          1           0        0.917600    2.200000    0.000000
 ---------------------------------------------------------------------
                    Distance matrix (angstroms):
                    1          2          3          4
     1  O    0.000000
     2  O    1.696555   0.000000
     3  H    1.290025   2.696278   0.000000
     4  H    2.604099   1.339503   3.816619   0.000000
 Stoichiometry    H2O2
 Framework group  CS[SG(H2O2)]
 Deg. of freedom     5
 Full point group                 CS      NOp   2
 Largest Abelian subgroup         CS      NOp   2
 Largest concise Abelian subgroup C1      NOp   1
                         Standard orientation:                         
 ---------------------------------------------------------------------
 Center     Atomic      Atomic             Coordinates (Angstroms)
 Number     Number       Type             X           Y           Z
 ---------------------------------------------------------------------
      1          8           0        0.009868    0.838148   -0.000000
      2          8           0        0.009868   -0.858407    0.000000
      3          1           0        1.018846    1.641968   -0.000000
      4          1           0       -1.176734   -1.479891    0.000000
 ---------------------------------------------------------------------
 Rotational constants (GHZ):         254.1399969          17.7941090          16.6297449
 Standard basis: 6-31G(d,p) (6D, 7F)
 There are    30 symmetry adapted cartesian basis functions of A'  symmetry.
 There are    10 symmetry adapted cartesian basis functions of A"  symmetry.
 There are    30 symmetry adapted basis functions of A'  symmetry.
 There are    10 symmetry adapted basis functions of A"  symmetry.
    40 basis functions,    70 primitive gaussians,    40 cartesian basis functions
     9 alpha electrons        9 beta electrons
       nuclear repulsion energy        29.7389403611 Hartrees.
 NAtoms=    4 NActive=    4 NUniq=    4 SFac= 1.00D+00 NAtFMM=   60 NAOKFM=F Big=F
 Integral buffers will be    131072 words long.
 Raffenetti 2 integral format.
 Two-electron integral symmetry is turned on.
 One-electron integrals computed using PRISM.
 NBasis=    40 RedAO= T EigKep=  2.14D-02  NBF=    30    10
 NBsUse=    40 1.00D-06 EigRej= -1.00D+00 NBFU=    30    10
 ExpMin= 1.61D-01 ExpMax= 5.48D+03 ExpMxC= 8.25D+02 IAcc=3 IRadAn=         5 AccDes= 0.00D+00
 Harris functional with IExCor=  402 and IRadAn=       5 diagonalized for initial guess.
 HarFok:  IExCor=  402 AccDes= 0.00D+00 IRadAn=         5 IDoV= 1 UseB2=F ITyADJ=14
 ICtDFT=  3500011 ScaDFX=  1.000000  1.000000  1.000000  1.000000
 FoFCou: FMM=F IPFlag=           0 FMFlag=      100000 FMFlg1=           0
         NFxFlg=           0 DoJE=T BraDBF=F KetDBF=T FulRan=T
         wScrn=  0.000000 ICntrl=       500 IOpCl=  0 I1Cent=   200000004 NGrid=           0
         NMat0=    1 NMatS0=      1 NMatT0=    0 NMatD0=    1 NMtDS0=    0 NMtDT0=    0
 Petite list used in FoFCou.
 Initial guess orbital symmetries:
 Alpha Orbitals:
       Occupied  (A') (A') (A') (A') (A') (A') (A") (A') (A")
       Virtual   (A') (A') (A') (A') (A') (A') (A") (A') (A") (A')
                 (A') (A') (A') (A") (A') (A") (A') (A") (A') (A')
                 (A') (A") (A") (A') (A") (A') (A') (A') (A') (A')
                 (A')
 Beta  Orbitals:
       Occupied  (A') (A') (A') (A') (A') (A') (A") (A') (A")
       Virtual   (A') (A') (A') (A') (A') (A') (A") (A') (A") (A')
                 (A') (A') (A') (A") (A') (A") (A') (A") (A') (A')
                 (A') (A") (A") (A') (A") (A') (A') (A') (A') (A')
                 (A')
 The electronic state of the initial guess is 1-A'.
 Initial guess <Sx>= 0.0000 <Sy>= 0.0000 <Sz>= 0.0000 <S**2>= 0.0000 S= 0.0000
 Keep R1 and R2 ints in memory in symmetry-blocked form, NReq=1228213.
 Requested convergence on RMS density matrix=1.00D-08 within 128 cycles.
 Requested convergence on MAX density matrix=1.00D-06.
 Requested convergence on             energy=1.00D-06.
 No special actions if energy rises.
 Integral accuracy reduced to 1.0D-05 until final iterations.
 Initial convergence to 1.0D-05 achieved.  Increase integral accuracy.
 SCF Done:  E(UB3LYP) =  -151.370453189     A.U. after   13 cycles
            NFock= 13  Conv=0.33D-08     -V/T= 2.0131
 <Sx>= 0.0000 <Sy>= 0.0000 <Sz>= 0.0000 <S**2>=-0.0000 S=-0.0000
 <L.S>= 0.000000000000E+00
 Annihilation of the first spin contaminant:
 S**2 before annihilation    -0.0000,   after    -0.0000

 **********************************************************************

            Population analysis using the SCF Density.

 **********************************************************************

 Orbital symmetries:
 Alpha Orbitals:
       Occupied  (A') (A') (A') (A') (A') (A') (A") (A') (A")
       Virtual   (A') (A') (A') (A') (A') (A') (A") (A') (A") (A')
                 (A') (A') (A') (A") (A') (A") (A') (A') (A") (A')
                 (A') (A") (A') (A") (A') (A") (A') (A') (A') (A')
                 (A')
 Beta  Orbitals:
       Occupied  (A') (A') (A') (A') (A') (A') (A") (A') (A")
       Virtual   (A') (A') (A') (A') (A') (A') (A") (A') (A") (A')
                 (A') (A') (A') (A") (A') (A") (A') (A') (A") (A')
                 (A') (A") (A') (A") (A') (A") (A') (A') (A') (A')
                 (A')
 The electronic state is 1-A'.
 Alpha  occ. eigenvalues --  -19.22580 -19.21313  -0.97805  -0.85609  -0.45660
 Alpha  occ. eigenvalues --   -0.40741  -0.33888  -0.30962  -0.25793
 Alpha virt. eigenvalues --   -0.13403  -0.03278   0.00981   0.64509   0.66392
 Alpha virt. eigenvalues --    0.82299   0.83762   0.85625   0.95561   0.97108
 Alpha virt. eigenvalues --    1.01151   1.17255   1.26318   1.51359   1.58167
 Alpha virt. eigenvalues --    1.64118   1.64142   1.74712   1.74877   1.81180
 Alpha virt. eigenvalues --    1.93122   2.08701   2.23496   2.24750   2.29819
 Alpha virt. eigenvalues --    2.30408   2.86240   3.02998   3.06547   3.36320
 Alpha virt. eigenvalues --    3.62026
  Beta  occ. eigenvalues --  -19.22580 -19.21313  -0.97805  -0.85609  -0.45660
  Beta  occ. eigenvalues --   -0.40741  -0.33888  -0.30962  -0.25793
  Beta virt. eigenvalues --   -0.13403  -0.03278   0.00981   0.64509   0.66392
  Beta virt. eigenvalues --    0.82299   0.83762   0.85625   0.95561   0.97108
  Beta virt. eigenvalues --    1.01151   1.17255   1.26318   1.51359   1.58167
  Beta virt. eigenvalues --    1.64118   1.64142   1.74712   1.74877   1.81180
  Beta virt. eigenvalues --    1.93122   2.08701   2.23496   2.24750   2.29819
  Beta virt. eigenvalues --    2.30408   2.86240   3.02998   3.06547   3.36320
  Beta virt. eigenvalues --    3.62026
          Condensed to atoms (all electrons):
               1          2          3          4
     1  O    8.071637   0.086349   0.175720  -0.002889
     2  O    0.086349   8.029041  -0.001670   0.176389
     3  H    0.175720  -0.001670   0.509692   0.000429
     4  H   -0.002889   0.176389   0.000429   0.520974
          Atomic-Atomic Spin Densities.
               1          2          3          4
     1  O    0.000000  -0.000000   0.000000   0.000000
     2  O   -0.000000   0.000000  -0.000000   0.000000
     3  H    0.000000  -0.000000   0.000000  -0.000000
     4  H    0.000000   0.000000  -0.000000   0.000000
 Mulliken charges and spin densities:
               1          2
     1  O   -0.330818   0.000000
     2  O   -0.290108   0.000000
     3  H    0.315829   0.000000
     4  H    0.305097   0.000000
 Sum of Mulliken charges =  -0.00000   0.00000
 Mulliken charges and spin densities with hydrogens summed into heavy atoms:
               1          2
     1  O   -0.014989   0.000000
     2  O    0.014989   0.000000
 Electronic spatial extent (au):  <R**2>=             88.0740
 Charge=             -0.0000 electrons
 Dipole moment (field-independent basis, Debye):
    X=             -0.1724    Y=              0.1801    Z=             -0.0000  Tot=              0.2493
 Quadrupole moment (field-independent basis, Debye-Ang):
   XX=             -8.3255   YY=             -6.4414   ZZ=            -13.2739
   XY=              5.7105   XZ=             -0.0000   YZ=             -0.0000
 Traceless Quadrupole moment (field-independent basis, Debye-Ang):
   XX=              1.0214   YY=              2.9055   ZZ=             -3.9270
   XY=              5.7105   XZ=             -0.0000   YZ=             -0.0000
 Octapole moment (field-independent basis, Debye-Ang**2):
  XXX=             -0.9257  YYY=              2.2714  ZZZ=              0.0000  XYY=              0.4152
  XXY=             -0.6238  XXZ=              0.0000  XZZ=              0.0293  YZZ=              0.0190
  YYZ=             -0.0000  XYZ=             -0.0000
 Hexadecapole moment (field-independent basis, Debye-Ang**3):
 XXXX=            -12.9521 YYYY=            -50.9623 ZZZZ=             -9.7484 XXXY=              0.7059
 XXXZ=             -0.0000 YYYX=              8.3593 YYYZ=              0.0000 ZZZX=              0.0000
 ZZZY=              0.0000 XXYY=             -5.0758 XXZZ=             -4.7810 YYZZ=            -14.9589
 XXYZ=             -0.0000 YYXZ=             -0.0000 ZZXY=             -2.3572
 N-N= 2.973894036106D+01 E-N=-4.173504730114D+02  KE= 1.494148588569D+02
 Symmetry A'   KE= 1.396406610346D+02
 Symmetry A"   KE= 9.774197822279D+00
 Symmetry A'   SP= 4.381203036063D-15
 Symmetry A"   SP= 1.000076092217D-14
                          Isotropic Fermi Contact Couplings
        Atom                 a.u.       MegaHertz       Gauss      10(-4) cm-1
     1  O(17)             -0.00000       0.00000       0.00000       0.00000
     2  O(17)             -0.00000       0.00000       0.00000       0.00000
     3  H(1)               0.00000       0.00000       0.00000       0.00000
     4  H(1)               0.00000       0.00000       0.00000       0.00000
 --------------------------------------------------------
       Center         ----  Spin Dipole Couplings  ----
                      3XX-RR        3YY-RR        3ZZ-RR
 --------------------------------------------------------
     1   Atom        0.000000      0.000000      0.000000
     2   Atom        0.000000      0.000000      0.000000
     3   Atom        0.000000      0.000000      0.000000
     4   Atom        0.000000      0.000000      0.000000
 --------------------------------------------------------
                        XY            XZ            YZ
 --------------------------------------------------------
     1   Atom        0.000000      0.000000      0.000000
     2   Atom        0.000000      0.000000      0.000000
     3   Atom        0.000000      0.000000      0.000000
     4   Atom        0.000000      0.000000      0.000000
 --------------------------------------------------------


 ---------------------------------------------------------------------------------
              Anisotropic Spin Dipole Couplings in Principal Axis System
 ---------------------------------------------------------------------------------

       Atom             a.u.   MegaHertz   Gauss  10(-4) cm-1        Axes

              Baa     0.0000    -0.000    -0.000    -0.000  1.0000  0.0000  0.0000
     1 O(17)  Bbb     0.0000    -0.000    -0.000    -0.000 -0.0000  1.0000  0.0000
              Bcc     0.0000    -0.000    -0.000    -0.000  0.0000  0.0000  1.0000
 
              Baa     0.0000    -0.000    -0.000    -0.000  1.0000  0.0000  0.0000
     2 O(17)  Bbb     0.0000    -0.000    -0.000    -0.000 -0.0000  1.0000  0.0000
              Bcc     0.0000    -0.000    -0.000    -0.000  0.0000  0.0000  1.0000
 
              Baa     0.0000     0.000     0.000     0.000  1.0000  0.0000  0.0000
     3 H(1)   Bbb     0.0000     0.000     0.000     0.000 -0.0000  1.0000  0.0000
              Bcc     0.0000     0.000     0.000     0.000  0.0000  0.0000  1.0000
 
              Baa     0.0000     0.000     0.000     0.000  1.0000  0.0000  0.0000
     4 H(1)   Bbb     0.0000     0.000     0.000     0.000 -0.0000  1.0000  0.0000
              Bcc     0.0000     0.000     0.000     0.000  0.0000  0.0000  1.0000
 

 ---------------------------------------------------------------------------------

 Calling FoFJK, ICntrl=      2127 FMM=F ISym2X=1 I1Cent= 0 IOpClX= 1 NMat=1 NMatS=1 NMatT=0.
 ***** Axes restored to original set *****
 -------------------------------------------------------------------
 Center     Atomic                   Forces (Hartrees/Bohr)
 Number     Number              X              Y              Z
 -------------------------------------------------------------------
      1        8          -0.031840459    0.005885286   -0.000000000
      2        8           0.023767084    0.023580817    0.000000000
      3        1           0.111546590    0.015772124    0.000000000
      4        1          -0.103473214   -0.045238227   -0.000000000
 -------------------------------------------------------------------
 Cartesian Forces:  Max     0.111546590 RMS     0.047970464

 GradGradGradGradGradGradGradGradGradGradGradGradGradGradGradGradGradGrad
 Berny optimization.
 FormGI is forming the generalized inverse of G from B-inverse, IUseBI=4.
 Internal  Forces:  Max     0.109080966 RMS     0.082965499
 Search for a local minimum.
 Step number   1 out of a maximum of   20
 All quantities printed in internal units (Hartrees-Bohrs-Radians)
 Mixed Optimization -- RFO/linear search
 Second derivative matrix not updated -- first step.
 The second derivative matrix:
                          R1        R2        R3        A1        A2
           R1           0.18172
           R2           0.00000   0.19109
           R3           0.00000   0.00000   0.16753
           A1           0.00000   0.00000   0.00000   0.16000
           A2           0.00000   0.00000   0.00000   0.00000   0.16000
           D1           0.00000   0.00000   0.00000   0.00000   0.00000
                          D1
           D1           0.00230
 ITU=  0
     Eigenvalues ---    0.00230   0.16000   0.16000   0.16753   0.18172
     Eigenvalues ---    0.19109
 RFO step:  Lambda=-1.34581471D-01 EMin= 2.30000000D-03
 Linear search not attempted -- first point.
 Maximum step size (   0.300) exceeded in Quadratic search.
    -- Step size scaled by   0.453
 Iteration  1 RMS(Cart)=  0.18456984 RMS(Int)=  0.00574004
 Iteration  2 RMS(Cart)=  0.00409637 RMS(Int)=  0.00001263
 Iteration  3 RMS(Cart)=  0.00001947 RMS(Int)=  0.00000000
 Iteration  4 RMS(Cart)=  0.00000000 RMS(Int)=  0.00000000
 ClnCor:  largest displacement from symmetrization is 1.32D-10 for atom     1.
 Variable       Old X    -DE/DX   Delta X   Delta X   Delta X     New X
                                 (Linear)    (Quad)   (Total)
    R1        3.20602  -0.06424   0.00000  -0.09193  -0.09193   3.11409
    R2        2.43779  -0.10608   0.00000  -0.14744  -0.14744   2.29035
    R3        2.53129  -0.10908   0.00000  -0.16343  -0.16343   2.36787
    A1        2.24350  -0.09244   0.00000  -0.14203  -0.14203   2.10147
    A2        2.05326  -0.07400   0.00000  -0.11370  -0.11370   1.93957
    D1        3.14159   0.00000   0.00000  -0.00000   0.00000   3.14159
         Item               Value     Threshold  Converged?
 Maximum Force            0.109081     0.000450     NO 
 RMS     Force            0.082965     0.000300     NO 
 Maximum Displacement     0.303544     0.001800     NO 
 RMS     Displacement     0.184769     0.001200     NO 
 Predicted change in Energy=-5.318611D-02
 GradGradGradGradGradGradGradGradGradGradGradGradGradGradGradGradGradGrad

                          Input orientation:                          
 ---------------------------------------------------------------------
 Center     Atomic      Atomic             Coordinates (Angstroms)
 Number     Number       Type             X           Y           Z
 ---------------------------------------------------------------------
      1          8           0       -1.640695    2.094413   -0.000000
      2          8           0       -0.174198    1.342762    0.000000
      3          1           0       -2.663372    1.443965   -0.000000
      4          1           0        0.760864    2.176860    0.000000
 ---------------------------------------------------------------------
                    Distance matrix (angstroms):
                    1          2          3          4
     1  O    0.000000
     2  O    1.647906   0.000000
     3  H    1.212003   2.491231   0.000000
     4  H    2.402974   1.253021   3.501789   0.000000
 Stoichiometry    H2O2
 Framework group  CS[SG(H2O2)]
 Deg. of freedom     5
 Full point group                 CS      NOp   2
 Largest Abelian subgroup         CS      NOp   2
 Largest concise Abelian subgroup C1      NOp   1
                         Standard orientation:                         
 ---------------------------------------------------------------------
 Center     Atomic      Atomic             Coordinates (Angstroms)
 Number     Number       Type             X           Y           Z
 ---------------------------------------------------------------------
      1          8           0        0.006859    0.814968   -0.000000
      2          8           0        0.006859   -0.832939    0.000000
      3          1           0        1.052172    1.428378   -0.000000
      4          1           0       -1.161923   -1.284612    0.000000
 ---------------------------------------------------------------------
 Rotational constants (GHZ):         242.0852319          19.5662510          18.1030903
 Standard basis: 6-31G(d,p) (6D, 7F)
 There are    30 symmetry adapted cartesian basis functions of A'  symmetry.
 There are    10 symmetry adapted cartesian basis functions of A"  symmetry.
 There are    30 symmetry adapted basis functions of A'  symmetry.
 There are    10 symmetry adapted basis functions of A"  symmetry.
    40 basis functions,    70 primitive gaussians,    40 cartesian basis functions
     9 alpha electrons        9 beta electrons
       nuclear repulsion energy        31.0354052253 Hartrees.
 NAtoms=    4 NActive=    4 NUniq=    4 SFac= 1.00D+00 NAtFMM=   60 NAOKFM=F Big=F
 Integral buffers will be    131072 words long.
 Raffenetti 2 integral format.
 Two-electron integral symmetry is turned on.
 One-electron integrals computed using PRISM.
 NBasis=    40 RedAO= T EigKep=  1.87D-02  NBF=    30    10
 NBsUse=    40 1.00D-06 EigRej= -1.00D+00 NBFU=    30    10
 Initial guess from the checkpoint file:  "/gpfs/home/gdb20/code/input_macros/temp/h2o2_b3lyp_6-31++Gdp/h2o2_b3lyp_6-31++Gdp.chk"
 B after Tr=    -0.000000    0.000000   -0.000000
         Rot=    0.999910    0.000000    0.000000    0.013440 Ang=   1.54 deg.
 Initial guess orbital symmetries:
 Alpha Orbitals:
       Occupied  (A') (A') (A') (A') (A') (A') (A") (A') (A")
       Virtual   (A') (A') (A') (A') (A') (A') (A") (A') (A") (A')
                 (A') (A') (A') (A") (A') (A") (A') (A') (A") (A')
                 (A') (A") (A') (A") (A') (A") (A') (A') (A') (A')
                 (A')
 Beta  Orbitals:
       Occupied  (A') (A') (A') (A') (A') (A') (A") (A') (A")
       Virtual   (A') (A') (A') (A') (A') (A') (A") (A') (A") (A')
                 (A') (A') (A') (A") (A') (A") (A') (A') (A") (A')
                 (A') (A") (A') (A") (A') (A") (A') (A') (A') (A')
                 (A')
 Initial guess <Sx>= 0.0000 <Sy>= 0.0000 <Sz>= 0.0000 <S**2>=-0.0000 S=-0.0000
 ExpMin= 1.61D-01 ExpMax= 5.48D+03 ExpMxC= 8.25D+02 IAcc=3 IRadAn=         5 AccDes= 0.00D+00
 Harris functional with IExCor=  402 and IRadAn=       5 diagonalized for initial guess.
 HarFok:  IExCor=  402 AccDes= 0.00D+00 IRadAn=         5 IDoV= 1 UseB2=F ITyADJ=14
 ICtDFT=  3500011 ScaDFX=  1.000000  1.000000  1.000000  1.000000
 FoFCou: FMM=F IPFlag=           0 FMFlag=      100000 FMFlg1=           0
         NFxFlg=           0 DoJE=T BraDBF=F KetDBF=T FulRan=T
         wScrn=  0.000000 ICntrl=       500 IOpCl=  0 I1Cent=   200000004 NGrid=           0
         NMat0=    1 NMatS0=      1 NMatT0=    0 NMatD0=    1 NMtDS0=    0 NMtDT0=    0
 Petite list used in FoFCou.
 Keep R1 and R2 ints in memory in symmetry-blocked form, NReq=1228213.
 Requested convergence on RMS density matrix=1.00D-08 within 128 cycles.
 Requested convergence on MAX density matrix=1.00D-06.
 Requested convergence on             energy=1.00D-06.
 No special actions if energy rises.
 Integral accuracy reduced to 1.0D-05 until final iterations.
 Initial convergence to 1.0D-05 achieved.  Increase integral accuracy.
 SCF Done:  E(UB3LYP) =  -151.429806657     A.U. after   12 cycles
            NFock= 12  Conv=0.52D-08     -V/T= 2.0128
 <Sx>= 0.0000 <Sy>= 0.0000 <Sz>= 0.0000 <S**2>=-0.0000 S=-0.0000
 <L.S>= 0.000000000000E+00
 Annihilation of the first spin contaminant:
 S**2 before annihilation    -0.0000,   after    -0.0000
 Calling FoFJK, ICntrl=      2127 FMM=F ISym2X=1 I1Cent= 0 IOpClX= 1 NMat=1 NMatS=1 NMatT=0.
 ***** Axes restored to original set *****
 -------------------------------------------------------------------
 Center     Atomic                   Forces (Hartrees/Bohr)
 Number     Number              X              Y              Z
 -------------------------------------------------------------------
      1        8          -0.027437926   -0.016827697   -0.000000000
      2        8           0.020113756    0.043686822    0.000000000
      3        1           0.105695774    0.026733524    0.000000000
      4        1          -0.098371604   -0.053592648   -0.000000000
 -------------------------------------------------------------------
 Cartesian Forces:  Max     0.105695774 RMS     0.048118374

 GradGradGradGradGradGradGradGradGradGradGradGradGradGradGradGradGradGrad
 Berny optimization.
 Using GEDIIS/GDIIS optimizer.
 FormGI is forming the generalized inverse of G from B-inverse, IUseBI=4.
 Internal  Forces:  Max     0.109084408 RMS     0.078130313
 Search for a local minimum.
 Step number   2 out of a maximum of   20
 All quantities printed in internal units (Hartrees-Bohrs-Radians)
 Mixed Optimization -- RFO/linear search
 Update second derivatives using D2CorX and points    1    2
 DE= -5.94D-02 DEPred=-5.32D-02 R= 1.12D+00
 TightC=F SS=  1.41D+00  RLast= 3.00D-01 DXNew= 5.0454D-01 9.0000D-01
 Trust test= 1.12D+00 RLast= 3.00D-01 DXMaxT set to 5.05D-01
 The second derivative matrix:
                          R1        R2        R3        A1        A2
           R1           0.16387
           R2          -0.03103   0.14143
           R3          -0.02958  -0.04990   0.11905
           A1          -0.02780  -0.03204  -0.04026   0.17872
           A2          -0.02277  -0.02414  -0.03223   0.02338   0.18679
           D1           0.00000  -0.00000   0.00000  -0.00000  -0.00000
                          D1
           D1           0.00230
 ITU=  1  0
 Use linear search instead of GDIIS.
 Linear search step of   0.600 exceeds DXMaxT=   0.505 but not scaled.
 Quartic linear search produced a step of  2.00000.
 Iteration  1 RMS(Cart)=  0.28183510 RMS(Int)=  0.07802175
 Iteration  2 RMS(Cart)=  0.09222375 RMS(Int)=  0.00229248
 Iteration  3 RMS(Cart)=  0.00189994 RMS(Int)=  0.00000279
 Iteration  4 RMS(Cart)=  0.00000387 RMS(Int)=  0.00000000
 Iteration  5 RMS(Cart)=  0.00000000 RMS(Int)=  0.00000000
 ClnCor:  largest displacement from symmetrization is 7.78D-11 for atom     1.
 Variable       Old X    -DE/DX   Delta X   Delta X   Delta X     New X
                                 (Linear)    (Quad)   (Total)
    R1        3.11409  -0.06512  -0.18386   0.00000  -0.18386   2.93023
    R2        2.29035  -0.10353  -0.29488   0.00000  -0.29488   1.99547
    R3        2.36787  -0.10908  -0.32686   0.00000  -0.32686   2.04101
    A1        2.10147  -0.07825  -0.28407   0.00000  -0.28407   1.81740
    A2        1.93957  -0.06036  -0.22740   0.00000  -0.22740   1.71217
    D1        3.14159  -0.00000   0.00000   0.00000   0.00000   3.14159
         Item               Value     Threshold  Converged?
 Maximum Force            0.109084     0.000450     NO 
 RMS     Force            0.078130     0.000300     NO 
 Maximum Displacement     0.612598     0.001800     NO 
 RMS     Displacement     0.366601     0.001200     NO 
 Predicted change in Energy=-1.063930D-01
 GradGradGradGradGradGradGradGradGradGradGradGradGradGradGradGradGradGrad

                          Input orientation:                          
 ---------------------------------------------------------------------
 Center     Atomic      Atomic             Coordinates (Angstroms)
 Number     Number       Type             X           Y           Z
 ---------------------------------------------------------------------
      1          8           0       -1.561454    2.166290   -0.000000
      2          8           0       -0.265552    1.314804    0.000000
      3          1           0       -2.339199    1.452033   -0.000000
      4          1           0        0.448805    2.124874    0.000000
 ---------------------------------------------------------------------
                    Distance matrix (angstroms):
                    1          2          3          4
     1  O    0.000000
     2  O    1.550610   0.000000
     3  H    1.055959   2.078182   0.000000
     4  H    2.010686   1.080056   2.868045   0.000000
 Stoichiometry    H2O2
 Framework group  CS[SG(H2O2)]
 Deg. of freedom     5
 Full point group                 CS      NOp   2
 Largest Abelian subgroup         CS      NOp   2
 Largest concise Abelian subgroup C1      NOp   1
                         Standard orientation:                         
 ---------------------------------------------------------------------
 Center     Atomic      Atomic             Coordinates (Angstroms)
 Number     Number       Type             X           Y           Z
 ---------------------------------------------------------------------
      1          8           0        0.002515    0.769439   -0.000000
      2          8           0        0.002515   -0.781171    0.000000
      3          1           0        1.026528    1.027209   -0.000000
      4          1           0       -1.066766   -0.933352    0.000000
 ---------------------------------------------------------------------
 Rotational constants (GHZ):         254.3927741          23.6228206          21.6156035
 Standard basis: 6-31G(d,p) (6D, 7F)
 There are    30 symmetry adapted cartesian basis functions of A'  symmetry.
 There are    10 symmetry adapted cartesian basis functions of A"  symmetry.
 There are    30 symmetry adapted basis functions of A'  symmetry.
 There are    10 symmetry adapted basis functions of A"  symmetry.
    40 basis functions,    70 primitive gaussians,    40 cartesian basis functions
     9 alpha electrons        9 beta electrons
       nuclear repulsion energy        34.0970559156 Hartrees.
 NAtoms=    4 NActive=    4 NUniq=    4 SFac= 1.00D+00 NAtFMM=   60 NAOKFM=F Big=F
 Integral buffers will be    131072 words long.
 Raffenetti 2 integral format.
 Two-electron integral symmetry is turned on.
 One-electron integrals computed using PRISM.
 NBasis=    40 RedAO= T EigKep=  1.38D-02  NBF=    30    10
 NBsUse=    40 1.00D-06 EigRej= -1.00D+00 NBFU=    30    10
 Initial guess from the checkpoint file:  "/gpfs/home/gdb20/code/input_macros/temp/h2o2_b3lyp_6-31++Gdp/h2o2_b3lyp_6-31++Gdp.chk"
 B after Tr=    -0.000000   -0.000000    0.000000
         Rot=    0.999757   -0.000000    0.000000    0.022066 Ang=   2.53 deg.
 Initial guess orbital symmetries:
 Alpha Orbitals:
       Occupied  (A') (A') (A') (A') (A') (A') (A") (A') (A")
       Virtual   (A') (A') (A') (A') (A') (A') (A") (A') (A") (A')
                 (A') (A') (A') (A") (A") (A') (A') (A") (A') (A')
                 (A') (A") (A') (A") (A") (A') (A') (A') (A') (A')
                 (A')
 Beta  Orbitals:
       Occupied  (A') (A') (A') (A') (A') (A') (A") (A') (A")
       Virtual   (A') (A') (A') (A') (A') (A') (A") (A') (A") (A')
                 (A') (A') (A') (A") (A") (A') (A') (A") (A') (A')
                 (A') (A") (A') (A") (A") (A') (A') (A') (A') (A')
                 (A')
 Initial guess <Sx>= 0.0000 <Sy>= 0.0000 <Sz>= 0.0000 <S**2>= 0.0000 S= 0.0000
 ExpMin= 1.61D-01 ExpMax= 5.48D+03 ExpMxC= 8.25D+02 IAcc=3 IRadAn=         5 AccDes= 0.00D+00
 Harris functional with IExCor=  402 and IRadAn=       5 diagonalized for initial guess.
 HarFok:  IExCor=  402 AccDes= 0.00D+00 IRadAn=         5 IDoV= 1 UseB2=F ITyADJ=14
 ICtDFT=  3500011 ScaDFX=  1.000000  1.000000  1.000000  1.000000
 FoFCou: FMM=F IPFlag=           0 FMFlag=      100000 FMFlg1=           0
         NFxFlg=           0 DoJE=T BraDBF=F KetDBF=T FulRan=T
         wScrn=  0.000000 ICntrl=       500 IOpCl=  0 I1Cent=   200000004 NGrid=           0
         NMat0=    1 NMatS0=      1 NMatT0=    0 NMatD0=    1 NMtDS0=    0 NMtDT0=    0
 Petite list used in FoFCou.
 Keep R1 and R2 ints in memory in symmetry-blocked form, NReq=1228213.
 Requested convergence on RMS density matrix=1.00D-08 within 128 cycles.
 Requested convergence on MAX density matrix=1.00D-06.
 Requested convergence on             energy=1.00D-06.
 No special actions if energy rises.
 Integral accuracy reduced to 1.0D-05 until final iterations.
 Initial convergence to 1.0D-05 achieved.  Increase integral accuracy.
 SCF Done:  E(UB3LYP) =  -151.522654132     A.U. after   12 cycles
            NFock= 12  Conv=0.25D-08     -V/T= 2.0107
 <Sx>= 0.0000 <Sy>= 0.0000 <Sz>= 0.0000 <S**2>= 0.0000 S= 0.0000
 <L.S>= 0.000000000000E+00
 Annihilation of the first spin contaminant:
 S**2 before annihilation     0.0000,   after    -0.0000
 Calling FoFJK, ICntrl=      2127 FMM=F ISym2X=1 I1Cent= 0 IOpClX= 1 NMat=1 NMatS=1 NMatT=0.
 ***** Axes restored to original set *****
 -------------------------------------------------------------------
 Center     Atomic                   Forces (Hartrees/Bohr)
 Number     Number              X              Y              Z
 -------------------------------------------------------------------
      1        8          -0.013162815   -0.042001506    0.000000000
      2        8           0.011265136    0.061973360   -0.000000000
      3        1           0.055253099    0.031209257    0.000000000
      4        1          -0.053355420   -0.051181112   -0.000000000
 -------------------------------------------------------------------
 Cartesian Forces:  Max     0.061973360 RMS     0.035821568

 GradGradGradGradGradGradGradGradGradGradGradGradGradGradGradGradGradGrad
 Berny optimization.
 Using GEDIIS/GDIIS optimizer.
 FormGI is forming the generalized inverse of G from B-inverse, IUseBI=4.
 Internal  Forces:  Max     0.073676657 RMS     0.044572555
 Search for a local minimum.
 Step number   3 out of a maximum of   20
 All quantities printed in internal units (Hartrees-Bohrs-Radians)
 Mixed Optimization -- RFO/linear search
 Update second derivatives using D2CorX and points    2    3
 The second derivative matrix:
                          R1        R2        R3        A1        A2
           R1           0.17451
           R2          -0.01161   0.17246
           R3          -0.01361  -0.02214   0.14260
           A1          -0.00220  -0.00258  -0.00729   0.17271
           A2           0.00190   0.00429  -0.00044   0.01772   0.18146
           D1           0.00000   0.00000   0.00000   0.00000   0.00000
                          D1
           D1           0.00230
 ITU=  0  1  0
 Use linear search instead of GDIIS.
     Eigenvalues ---    0.00230   0.12292   0.16033   0.17787   0.18590
     Eigenvalues ---    0.19671
 RFO step:  Lambda=-1.45418885D-02 EMin= 2.30000000D-03
 Quartic linear search produced a step of  0.53772.
 Iteration  1 RMS(Cart)=  0.15007294 RMS(Int)=  0.06759177
 Iteration  2 RMS(Cart)=  0.05744623 RMS(Int)=  0.00090591
 Iteration  3 RMS(Cart)=  0.00089091 RMS(Int)=  0.00000084
 Iteration  4 RMS(Cart)=  0.00000084 RMS(Int)=  0.00000000
 ClnCor:  largest displacement from symmetrization is 6.02D-12 for atom     2.
 Variable       Old X    -DE/DX   Delta X   Delta X   Delta X     New X
                                 (Linear)    (Quad)   (Total)
    R1        2.93023  -0.04110  -0.09887  -0.08116  -0.18003   2.75020
    R2        1.99547  -0.06181  -0.15856  -0.09761  -0.25618   1.73930
    R3        2.04101  -0.07368  -0.17576  -0.17699  -0.35274   1.68827
    A1        1.81740  -0.02871  -0.15275   0.10016  -0.05259   1.76481
    A2        1.71217  -0.01259  -0.12228   0.16427   0.04199   1.75416
    D1        3.14159   0.00000   0.00000   0.00000   0.00000   3.14159
         Item               Value     Threshold  Converged?
 Maximum Force            0.073677     0.000450     NO 
 RMS     Force            0.044573     0.000300     NO 
 Maximum Displacement     0.324151     0.001800     NO 
 RMS     Displacement     0.198711     0.001200     NO 
 Predicted change in Energy=-3.613017D-02
 GradGradGradGradGradGradGradGradGradGradGradGradGradGradGradGradGradGrad

                          Input orientation:                          
 ---------------------------------------------------------------------
 Center     Atomic      Atomic             Coordinates (Angstroms)
 Number     Number       Type             X           Y           Z
 ---------------------------------------------------------------------
      1          8           0       -1.542115    2.150222   -0.000000
      2          8           0       -0.303903    1.385468    0.000000
      3          1           0       -2.167665    1.475081   -0.000000
      4          1           0        0.296283    2.047229    0.000000
 ---------------------------------------------------------------------
                    Distance matrix (angstroms):
                    1          2          3          4
     1  O    0.000000
     2  O    1.455341   0.000000
     3  H    0.920396   1.865915   0.000000
     4  H    1.841281   0.893393   2.529505   0.000000
 Stoichiometry    H2O2
 Framework group  CS[SG(H2O2)]
 Deg. of freedom     5
 Full point group                 CS      NOp   2
 Largest Abelian subgroup         CS      NOp   2
 Largest concise Abelian subgroup C1      NOp   1
                         Standard orientation:                         
 ---------------------------------------------------------------------
 Center     Atomic      Atomic             Coordinates (Angstroms)
 Number     Number       Type             X           Y           Z
 ---------------------------------------------------------------------
      1          8           0       -0.001373    0.726862    0.000000
      2          8           0       -0.001373   -0.728479    0.000000
      3          1           0        0.901756    0.904310    0.000000
      4          1           0       -0.879789   -0.891378    0.000000
 ---------------------------------------------------------------------
 Rotational constants (GHZ):         349.0684810          27.0031259          25.0642164
 Standard basis: 6-31G(d,p) (6D, 7F)
 There are    30 symmetry adapted cartesian basis functions of A'  symmetry.
 There are    10 symmetry adapted cartesian basis functions of A"  symmetry.
 There are    30 symmetry adapted basis functions of A'  symmetry.
 There are    10 symmetry adapted basis functions of A"  symmetry.
    40 basis functions,    70 primitive gaussians,    40 cartesian basis functions
     9 alpha electrons        9 beta electrons
       nuclear repulsion energy        37.3864074577 Hartrees.
 NAtoms=    4 NActive=    4 NUniq=    4 SFac= 1.00D+00 NAtFMM=   60 NAOKFM=F Big=F
 Integral buffers will be    131072 words long.
 Raffenetti 2 integral format.
 Two-electron integral symmetry is turned on.
 One-electron integrals computed using PRISM.
 NBasis=    40 RedAO= T EigKep=  1.07D-02  NBF=    30    10
 NBsUse=    40 1.00D-06 EigRej= -1.00D+00 NBFU=    30    10
 Initial guess from the checkpoint file:  "/gpfs/home/gdb20/code/input_macros/temp/h2o2_b3lyp_6-31++Gdp/h2o2_b3lyp_6-31++Gdp.chk"
 B after Tr=     0.000000   -0.000000   -0.000000
         Rot=    0.999986    0.000000   -0.000000   -0.005200 Ang=  -0.60 deg.
 Initial guess orbital symmetries:
 Alpha Orbitals:
       Occupied  (A') (A') (A') (A') (A') (A') (A") (A') (A")
       Virtual   (A') (A') (A') (A') (A') (A') (A") (A') (A') (A")
                 (A') (A') (A') (A") (A") (A') (A") (A') (A') (A')
                 (A') (A") (A') (A") (A") (A') (A') (A') (A') (A')
                 (A')
 Beta  Orbitals:
       Occupied  (A') (A') (A') (A') (A') (A') (A") (A') (A")
       Virtual   (A') (A') (A') (A') (A') (A') (A") (A') (A') (A")
                 (A') (A') (A') (A") (A") (A') (A") (A') (A') (A')
                 (A') (A") (A') (A") (A") (A') (A') (A') (A') (A')
                 (A')
 Initial guess <Sx>= 0.0000 <Sy>= 0.0000 <Sz>= 0.0000 <S**2>=-0.0000 S=-0.0000
 ExpMin= 1.61D-01 ExpMax= 5.48D+03 ExpMxC= 8.25D+02 IAcc=3 IRadAn=         5 AccDes= 0.00D+00
 Harris functional with IExCor=  402 and IRadAn=       5 diagonalized for initial guess.
 HarFok:  IExCor=  402 AccDes= 0.00D+00 IRadAn=         5 IDoV= 1 UseB2=F ITyADJ=14
 ICtDFT=  3500011 ScaDFX=  1.000000  1.000000  1.000000  1.000000
 FoFCou: FMM=F IPFlag=           0 FMFlag=      100000 FMFlg1=           0
         NFxFlg=           0 DoJE=T BraDBF=F KetDBF=T FulRan=T
         wScrn=  0.000000 ICntrl=       500 IOpCl=  0 I1Cent=   200000004 NGrid=           0
         NMat0=    1 NMatS0=      1 NMatT0=    0 NMatD0=    1 NMtDS0=    0 NMtDT0=    0
 Petite list used in FoFCou.
 Keep R1 and R2 ints in memory in symmetry-blocked form, NReq=1228213.
 Requested convergence on RMS density matrix=1.00D-08 within 128 cycles.
 Requested convergence on MAX density matrix=1.00D-06.
 Requested convergence on             energy=1.00D-06.
 No special actions if energy rises.
 Integral accuracy reduced to 1.0D-05 until final iterations.
 Initial convergence to 1.0D-05 achieved.  Increase integral accuracy.
 SCF Done:  E(UB3LYP) =  -151.532809108     A.U. after   12 cycles
            NFock= 12  Conv=0.27D-08     -V/T= 2.0064
 <Sx>= 0.0000 <Sy>= 0.0000 <Sz>= 0.0000 <S**2>= 0.0000 S= 0.0000
 <L.S>= 0.000000000000E+00
 Annihilation of the first spin contaminant:
 S**2 before annihilation     0.0000,   after     0.0000
 Calling FoFJK, ICntrl=      2127 FMM=F ISym2X=1 I1Cent= 0 IOpClX= 1 NMat=1 NMatS=1 NMatT=0.
 ***** Axes restored to original set *****
 -------------------------------------------------------------------
 Center     Atomic                   Forces (Hartrees/Bohr)
 Number     Number              X              Y              Z
 -------------------------------------------------------------------
      1        8           0.038700848    0.051313514   -0.000000000
      2        8          -0.066395489   -0.081237640   -0.000000000
      3        1          -0.033814833   -0.045799701   -0.000000000
      4        1           0.061509474    0.075723827   -0.000000000
 -------------------------------------------------------------------
 Cartesian Forces:  Max     0.081237640 RMS     0.048215935

 GradGradGradGradGradGradGradGradGradGradGradGradGradGradGradGradGradGrad
 Berny optimization.
 Using GEDIIS/GDIIS optimizer.
 FormGI is forming the generalized inverse of G from B-inverse, IUseBI=4.
 Internal  Forces:  Max     0.097413087 RMS     0.046356031
 Search for a local minimum.
 Step number   4 out of a maximum of   20
 All quantities printed in internal units (Hartrees-Bohrs-Radians)
 Mixed Optimization -- RFO/linear search
 Update second derivatives using D2CorX and points    3    4
 DE= -1.02D-02 DEPred=-3.61D-02 R= 2.81D-01
 Trust test= 2.81D-01 RLast= 4.76D-01 DXMaxT set to 5.05D-01
 The second derivative matrix:
                          R1        R2        R3        A1        A2
           R1           0.17107
           R2           0.00792   0.27357
           R3           0.02067   0.13276   0.37726
           A1           0.00103   0.01300   0.01643   0.17510
           A2           0.00786   0.01516   0.01387   0.01928   0.18056
           D1          -0.00000  -0.00000  -0.00000   0.00000   0.00000
                          D1
           D1           0.00230
 ITU=  0  0  1  0
 Use linear search instead of GDIIS.
     Eigenvalues ---    0.00230   0.15610   0.16879   0.18396   0.19610
     Eigenvalues ---    0.47261
 RFO step:  Lambda=-7.36807337D-03 EMin= 2.30000000D-03
 Quartic linear search produced a step of -0.35789.
 Iteration  1 RMS(Cart)=  0.06957504 RMS(Int)=  0.00285178
 Iteration  2 RMS(Cart)=  0.00212299 RMS(Int)=  0.00000458
 Iteration  3 RMS(Cart)=  0.00000433 RMS(Int)=  0.00000000
 Iteration  4 RMS(Cart)=  0.00000000 RMS(Int)=  0.00000000
 ClnCor:  largest displacement from symmetrization is 1.89D-10 for atom     3.
 Variable       Old X    -DE/DX   Delta X   Delta X   Delta X     New X
                                 (Linear)    (Quad)   (Total)
    R1        2.75020  -0.00126   0.06443  -0.14975  -0.08532   2.66487
    R2        1.73930   0.05658   0.09168  -0.02057   0.07111   1.81041
    R3        1.68827   0.09741   0.12624   0.06194   0.18818   1.87645
    A1        1.76481  -0.01100   0.01882  -0.11212  -0.09330   1.67151
    A2        1.75416  -0.00896  -0.01503  -0.02682  -0.04185   1.71231
    D1        3.14159  -0.00000   0.00000   0.00000   0.00000   3.14159
         Item               Value     Threshold  Converged?
 Maximum Force            0.097413     0.000450     NO 
 RMS     Force            0.046356     0.000300     NO 
 Maximum Displacement     0.120511     0.001800     NO 
 RMS     Displacement     0.070005     0.001200     NO 
 Predicted change in Energy=-1.396989D-02
 GradGradGradGradGradGradGradGradGradGradGradGradGradGradGradGradGradGrad

                          Input orientation:                          
 ---------------------------------------------------------------------
 Center     Atomic      Atomic             Coordinates (Angstroms)
 Number     Number       Type             X           Y           Z
 ---------------------------------------------------------------------
      1          8           0       -1.517500    2.172948   -0.000000
      2          8           0       -0.367675    1.356530   -0.000000
      3          1           0       -2.147871    1.451528   -0.000000
      4          1           0        0.315645    2.076994   -0.000000
 ---------------------------------------------------------------------
                    Distance matrix (angstroms):
                    1          2          3          4
     1  O    0.000000
     2  O    1.410190   0.000000
     3  H    0.958026   1.782729   0.000000
     4  H    1.835655   0.992973   2.541677   0.000000
 Stoichiometry    H2O2
 Framework group  CS[SG(H2O2)]
 Deg. of freedom     5
 Full point group                 CS      NOp   2
 Largest Abelian subgroup         CS      NOp   2
 Largest concise Abelian subgroup C1      NOp   1
                         Standard orientation:                         
 ---------------------------------------------------------------------
 Center     Atomic      Atomic             Coordinates (Angstroms)
 Number     Number       Type             X           Y           Z
 ---------------------------------------------------------------------
      1          8           0        0.001660    0.707524    0.000000
      2          8           0        0.001660   -0.702666    0.000000
      3          1           0        0.954831    0.803849    0.000000
      4          1           0       -0.981387   -0.842717    0.000000
 ---------------------------------------------------------------------
 Rotational constants (GHZ):         293.2398042          28.9826912          26.3758081
 Standard basis: 6-31G(d,p) (6D, 7F)
 There are    30 symmetry adapted cartesian basis functions of A'  symmetry.
 There are    10 symmetry adapted cartesian basis functions of A"  symmetry.
 There are    30 symmetry adapted basis functions of A'  symmetry.
 There are    10 symmetry adapted basis functions of A"  symmetry.
    40 basis functions,    70 primitive gaussians,    40 cartesian basis functions
     9 alpha electrons        9 beta electrons
       nuclear repulsion energy        37.5875219182 Hartrees.
 NAtoms=    4 NActive=    4 NUniq=    4 SFac= 1.00D+00 NAtFMM=   60 NAOKFM=F Big=F
 Integral buffers will be    131072 words long.
 Raffenetti 2 integral format.
 Two-electron integral symmetry is turned on.
 One-electron integrals computed using PRISM.
 NBasis=    40 RedAO= T EigKep=  9.82D-03  NBF=    30    10
 NBsUse=    40 1.00D-06 EigRej= -1.00D+00 NBFU=    30    10
 Initial guess from the checkpoint file:  "/gpfs/home/gdb20/code/input_macros/temp/h2o2_b3lyp_6-31++Gdp/h2o2_b3lyp_6-31++Gdp.chk"
 B after Tr=    -0.000000    0.000000    0.000000
         Rot=    0.999929    0.000000    0.000000    0.011915 Ang=   1.37 deg.
 Initial guess orbital symmetries:
 Alpha Orbitals:
       Occupied  (A') (A') (A') (A') (A') (A') (A") (A') (A")
       Virtual   (A') (A') (A') (A') (A') (A') (A") (A') (A") (A')
                 (A') (A') (A') (A") (A") (A') (A") (A') (A') (A")
                 (A') (A') (A') (A") (A") (A') (A') (A') (A') (A')
                 (A')
 Beta  Orbitals:
       Occupied  (A') (A') (A') (A') (A') (A') (A") (A') (A")
       Virtual   (A') (A') (A') (A') (A') (A') (A") (A') (A") (A')
                 (A') (A') (A') (A") (A") (A') (A") (A') (A') (A")
                 (A') (A') (A') (A") (A") (A') (A') (A') (A') (A')
                 (A')
 Initial guess <Sx>= 0.0000 <Sy>= 0.0000 <Sz>= 0.0000 <S**2>=-0.0000 S=-0.0000
 ExpMin= 1.61D-01 ExpMax= 5.48D+03 ExpMxC= 8.25D+02 IAcc=3 IRadAn=         5 AccDes= 0.00D+00
 Harris functional with IExCor=  402 and IRadAn=       5 diagonalized for initial guess.
 HarFok:  IExCor=  402 AccDes= 0.00D+00 IRadAn=         5 IDoV= 1 UseB2=F ITyADJ=14
 ICtDFT=  3500011 ScaDFX=  1.000000  1.000000  1.000000  1.000000
 FoFCou: FMM=F IPFlag=           0 FMFlag=      100000 FMFlg1=           0
         NFxFlg=           0 DoJE=T BraDBF=F KetDBF=T FulRan=T
         wScrn=  0.000000 ICntrl=       500 IOpCl=  0 I1Cent=   200000004 NGrid=           0
         NMat0=    1 NMatS0=      1 NMatT0=    0 NMatD0=    1 NMtDS0=    0 NMtDT0=    0
 Petite list used in FoFCou.
 Keep R1 and R2 ints in memory in symmetry-blocked form, NReq=1228213.
 Requested convergence on RMS density matrix=1.00D-08 within 128 cycles.
 Requested convergence on MAX density matrix=1.00D-06.
 Requested convergence on             energy=1.00D-06.
 No special actions if energy rises.
 Integral accuracy reduced to 1.0D-05 until final iterations.
 Initial convergence to 1.0D-05 achieved.  Increase integral accuracy.
 SCF Done:  E(UB3LYP) =  -151.538928826     A.U. after   11 cycles
            NFock= 11  Conv=0.71D-08     -V/T= 2.0074
 <Sx>= 0.0000 <Sy>= 0.0000 <Sz>= 0.0000 <S**2>=-0.0000 S=-0.0000
 <L.S>= 0.000000000000E+00
 Annihilation of the first spin contaminant:
 S**2 before annihilation    -0.0000,   after     0.0000
 Calling FoFJK, ICntrl=      2127 FMM=F ISym2X=1 I1Cent= 0 IOpClX= 1 NMat=1 NMatS=1 NMatT=0.
 ***** Axes restored to original set *****
 -------------------------------------------------------------------
 Center     Atomic                   Forces (Hartrees/Bohr)
 Number     Number              X              Y              Z
 -------------------------------------------------------------------
      1        8          -0.025969144    0.017699679   -0.000000000
      2        8           0.052156766    0.003322525   -0.000000000
      3        1          -0.015306383   -0.001713134   -0.000000000
      4        1          -0.010881238   -0.019309070    0.000000000
 -------------------------------------------------------------------
 Cartesian Forces:  Max     0.052156766 RMS     0.019251632

 GradGradGradGradGradGradGradGradGradGradGradGradGradGradGradGradGradGrad
 Berny optimization.
 Using GEDIIS/GDIIS optimizer.
 FormGI is forming the generalized inverse of G from B-inverse, IUseBI=4.
 Internal  Forces:  Max     0.042909876 RMS     0.021944244
 Search for a local minimum.
 Step number   5 out of a maximum of   20
 All quantities printed in internal units (Hartrees-Bohrs-Radians)
 Mixed Optimization -- RFO/linear search
 Update second derivatives using D2CorX and points    3    4    5
 DE= -6.12D-03 DEPred=-1.40D-02 R= 4.38D-01
 Trust test= 4.38D-01 RLast= 2.41D-01 DXMaxT set to 5.05D-01
 The second derivative matrix:
                          R1        R2        R3        A1        A2
           R1           0.27831
           R2           0.01775   0.28905
           R3          -0.07851   0.15236   0.51562
           A1           0.05311   0.01910  -0.03582   0.19594
           A2           0.04675   0.01703  -0.02405   0.03895   0.19466
           D1           0.00000  -0.00000  -0.00000   0.00000   0.00000
                          D1
           D1           0.00230
 ITU=  0  0  0  1  0
 Use linear search instead of GDIIS.
     Eigenvalues ---    0.00230   0.15551   0.17994   0.18340   0.34571
     Eigenvalues ---    0.60902
 RFO step:  Lambda=-5.38967471D-03 EMin= 2.30000000D-03
 Quartic linear search produced a step of -0.32582.
 Iteration  1 RMS(Cart)=  0.07028348 RMS(Int)=  0.00138142
 Iteration  2 RMS(Cart)=  0.00125214 RMS(Int)=  0.00000104
 Iteration  3 RMS(Cart)=  0.00000143 RMS(Int)=  0.00000000
 Iteration  4 RMS(Cart)=  0.00000000 RMS(Int)=  0.00000000
 ClnCor:  largest displacement from symmetrization is 1.67D-09 for atom     1.
 Variable       Old X    -DE/DX   Delta X   Delta X   Delta X     New X
                                 (Linear)    (Quad)   (Total)
    R1        2.66487   0.04291   0.02780   0.10714   0.13494   2.79981
    R2        1.81041   0.01136  -0.02317   0.06220   0.03903   1.84944
    R3        1.87645  -0.02150  -0.06131   0.02247  -0.03884   1.83760
    A1        1.67151   0.01883   0.03040   0.02979   0.06019   1.73170
    A2        1.71231   0.01012   0.01364  -0.00798   0.00565   1.71796
    D1        3.14159  -0.00000   0.00000   0.00000   0.00000   3.14159
         Item               Value     Threshold  Converged?
 Maximum Force            0.042910     0.000450     NO 
 RMS     Force            0.021944     0.000300     NO 
 Maximum Displacement     0.113563     0.001800     NO 
 RMS     Displacement     0.070986     0.001200     NO 
 Predicted change in Energy=-3.866109D-03
 GradGradGradGradGradGradGradGradGradGradGradGradGradGradGradGradGradGrad

                          Input orientation:                          
 ---------------------------------------------------------------------
 Center     Atomic      Atomic             Coordinates (Angstroms)
 Number     Number       Type             X           Y           Z
 ---------------------------------------------------------------------
      1          8           0       -1.542950    2.173193   -0.000000
      2          8           0       -0.308691    1.353600   -0.000000
      3          1           0       -2.207966    1.455161   -0.000000
      4          1           0        0.342206    2.076046   -0.000000
 ---------------------------------------------------------------------
                    Distance matrix (angstroms):
                    1          2          3          4
     1  O    0.000000
     2  O    1.481597   0.000000
     3  H    0.978681   1.901988   0.000000
     4  H    1.887657   0.972417   2.624666   0.000000
 Stoichiometry    H2O2
 Framework group  CS[SG(H2O2)]
 Deg. of freedom     5
 Full point group                 CS      NOp   2
 Largest Abelian subgroup         CS      NOp   2
 Largest concise Abelian subgroup C1      NOp   1
                         Standard orientation:                         
 ---------------------------------------------------------------------
 Center     Atomic      Atomic             Coordinates (Angstroms)
 Number     Number       Type             X           Y           Z
 ---------------------------------------------------------------------
      1          8           0       -0.000230    0.740009    0.000000
      2          8           0       -0.000230   -0.741587    0.000000
      3          1           0        0.965810    0.896804    0.000000
      4          1           0       -0.962136   -0.884179    0.000000
 ---------------------------------------------------------------------
 Rotational constants (GHZ):         297.0209320          26.1509603          24.0348335
 Standard basis: 6-31G(d,p) (6D, 7F)
 There are    30 symmetry adapted cartesian basis functions of A'  symmetry.
 There are    10 symmetry adapted cartesian basis functions of A"  symmetry.
 There are    30 symmetry adapted basis functions of A'  symmetry.
 There are    10 symmetry adapted basis functions of A"  symmetry.
    40 basis functions,    70 primitive gaussians,    40 cartesian basis functions
     9 alpha electrons        9 beta electrons
       nuclear repulsion energy        36.2078984659 Hartrees.
 NAtoms=    4 NActive=    4 NUniq=    4 SFac= 1.00D+00 NAtFMM=   60 NAOKFM=F Big=F
 Integral buffers will be    131072 words long.
 Raffenetti 2 integral format.
 Two-electron integral symmetry is turned on.
 One-electron integrals computed using PRISM.
 NBasis=    40 RedAO= T EigKep=  1.15D-02  NBF=    30    10
 NBsUse=    40 1.00D-06 EigRej= -1.00D+00 NBFU=    30    10
 Initial guess from the checkpoint file:  "/gpfs/home/gdb20/code/input_macros/temp/h2o2_b3lyp_6-31++Gdp/h2o2_b3lyp_6-31++Gdp.chk"
 B after Tr=     0.000000    0.000000    0.000000
         Rot=    0.999983   -0.000000   -0.000000   -0.005852 Ang=  -0.67 deg.
 Initial guess orbital symmetries:
 Alpha Orbitals:
       Occupied  (A') (A') (A') (A') (A') (A') (A") (A') (A")
       Virtual   (A') (A') (A') (A') (A') (A') (A") (A') (A") (A')
                 (A') (A') (A') (A") (A') (A") (A") (A') (A') (A')
                 (A") (A') (A') (A") (A") (A') (A') (A') (A') (A')
                 (A')
 Beta  Orbitals:
       Occupied  (A') (A') (A') (A') (A') (A') (A") (A') (A")
       Virtual   (A') (A') (A') (A') (A') (A') (A") (A') (A") (A')
                 (A') (A') (A') (A") (A') (A") (A") (A') (A') (A')
                 (A") (A') (A') (A") (A") (A') (A') (A') (A') (A')
                 (A')
 Initial guess <Sx>= 0.0000 <Sy>= 0.0000 <Sz>= 0.0000 <S**2>= 0.0000 S= 0.0000
 ExpMin= 1.61D-01 ExpMax= 5.48D+03 ExpMxC= 8.25D+02 IAcc=3 IRadAn=         5 AccDes= 0.00D+00
 Harris functional with IExCor=  402 and IRadAn=       5 diagonalized for initial guess.
 HarFok:  IExCor=  402 AccDes= 0.00D+00 IRadAn=         5 IDoV= 1 UseB2=F ITyADJ=14
 ICtDFT=  3500011 ScaDFX=  1.000000  1.000000  1.000000  1.000000
 FoFCou: FMM=F IPFlag=           0 FMFlag=      100000 FMFlg1=           0
         NFxFlg=           0 DoJE=T BraDBF=F KetDBF=T FulRan=T
         wScrn=  0.000000 ICntrl=       500 IOpCl=  0 I1Cent=   200000004 NGrid=           0
         NMat0=    1 NMatS0=      1 NMatT0=    0 NMatD0=    1 NMtDS0=    0 NMtDT0=    0
 Petite list used in FoFCou.
 Keep R1 and R2 ints in memory in symmetry-blocked form, NReq=1228213.
 Requested convergence on RMS density matrix=1.00D-08 within 128 cycles.
 Requested convergence on MAX density matrix=1.00D-06.
 Requested convergence on             energy=1.00D-06.
 No special actions if energy rises.
 Integral accuracy reduced to 1.0D-05 until final iterations.
 Initial convergence to 1.0D-05 achieved.  Increase integral accuracy.
 SCF Done:  E(UB3LYP) =  -151.541833361     A.U. after   11 cycles
            NFock= 11  Conv=0.23D-08     -V/T= 2.0084
 <Sx>= 0.0000 <Sy>= 0.0000 <Sz>= 0.0000 <S**2>= 0.0000 S= 0.0000
 <L.S>= 0.000000000000E+00
 Annihilation of the first spin contaminant:
 S**2 before annihilation     0.0000,   after    -0.0000
 Calling FoFJK, ICntrl=      2127 FMM=F ISym2X=1 I1Cent= 0 IOpClX= 1 NMat=1 NMatS=1 NMatT=0.
 ***** Axes restored to original set *****
 -------------------------------------------------------------------
 Center     Atomic                   Forces (Hartrees/Bohr)
 Number     Number              X              Y              Z
 -------------------------------------------------------------------
      1        8           0.001709825   -0.006801869   -0.000000000
      2        8          -0.006696950    0.003420989   -0.000000000
      3        1           0.008128675    0.004172074   -0.000000000
      4        1          -0.003141549   -0.000791194   -0.000000000
 -------------------------------------------------------------------
 Cartesian Forces:  Max     0.008128675 RMS     0.004079605

 GradGradGradGradGradGradGradGradGradGradGradGradGradGradGradGradGradGrad
 Berny optimization.
 Using GEDIIS/GDIIS optimizer.
 FormGI is forming the generalized inverse of G from B-inverse, IUseBI=4.
 Internal  Forces:  Max     0.009651019 RMS     0.006035410
 Search for a local minimum.
 Step number   6 out of a maximum of   20
 All quantities printed in internal units (Hartrees-Bohrs-Radians)
 Mixed Optimization -- RFO/linear search
 Update second derivatives using D2CorX and points    3    4    5    6
 DE= -2.90D-03 DEPred=-3.87D-03 R= 7.51D-01
 TightC=F SS=  1.41D+00  RLast= 1.58D-01 DXNew= 8.4853D-01 4.7335D-01
 Trust test= 7.51D-01 RLast= 1.58D-01 DXMaxT set to 5.05D-01
 The second derivative matrix:
                          R1        R2        R3        A1        A2
           R1           0.32223
           R2           0.07820   0.35030
           R3          -0.03493   0.18422   0.52243
           A1           0.07208   0.04479  -0.01531   0.20427
           A2           0.05882   0.03209  -0.01238   0.04398   0.19752
           D1          -0.00000  -0.00000  -0.00000   0.00000   0.00000
                          D1
           D1           0.00230
 ITU=  1  0  0  0  1  0
 Use linear search instead of GDIIS.
     Eigenvalues ---    0.00230   0.15567   0.18205   0.18347   0.43448
     Eigenvalues ---    0.64107
 RFO step:  Lambda=-1.04835932D-04 EMin= 2.30000000D-03
 Quartic linear search produced a step of -0.21391.
 Iteration  1 RMS(Cart)=  0.01937405 RMS(Int)=  0.00009328
 Iteration  2 RMS(Cart)=  0.00007742 RMS(Int)=  0.00000001
 Iteration  3 RMS(Cart)=  0.00000001 RMS(Int)=  0.00000000
 ClnCor:  largest displacement from symmetrization is 3.54D-10 for atom     1.
 Variable       Old X    -DE/DX   Delta X   Delta X   Delta X     New X
                                 (Linear)    (Quad)   (Total)
    R1        2.79981  -0.00965  -0.02886   0.00292  -0.02595   2.77386
    R2        1.84944  -0.00858  -0.00835  -0.00868  -0.01703   1.83241
    R3        1.83760  -0.00269   0.00831  -0.00897  -0.00066   1.83695
    A1        1.73170  -0.00579  -0.01287  -0.00528  -0.01816   1.71354
    A2        1.71796  -0.00332  -0.00121  -0.00140  -0.00261   1.71536
    D1        3.14159   0.00000   0.00000   0.00000   0.00000   3.14159
         Item               Value     Threshold  Converged?
 Maximum Force            0.009651     0.000450     NO 
 RMS     Force            0.006035     0.000300     NO 
 Maximum Displacement     0.035214     0.001800     NO 
 RMS     Displacement     0.019338     0.001200     NO 
 Predicted change in Energy=-2.272606D-04
 GradGradGradGradGradGradGradGradGradGradGradGradGradGradGradGradGradGrad

                          Input orientation:                          
 ---------------------------------------------------------------------
 Center     Atomic      Atomic             Coordinates (Angstroms)
 Number     Number       Type             X           Y           Z
 ---------------------------------------------------------------------
      1          8           0       -1.538917    2.174197   -0.000000
      2          8           0       -0.321241    1.354505   -0.000000
      3          1           0       -2.189331    1.455015   -0.000000
      4          1           0        0.332090    2.074282   -0.000000
 ---------------------------------------------------------------------
                    Distance matrix (angstroms):
                    1          2          3          4
     1  O    0.000000
     2  O    1.467865   0.000000
     3  H    0.969671   1.870792   0.000000
     4  H    1.873673   0.972070   2.596354   0.000000
 Stoichiometry    H2O2
 Framework group  CS[SG(H2O2)]
 Deg. of freedom     5
 Full point group                 CS      NOp   2
 Largest Abelian subgroup         CS      NOp   2
 Largest concise Abelian subgroup C1      NOp   1
                         Standard orientation:                         
 ---------------------------------------------------------------------
 Center     Atomic      Atomic             Coordinates (Angstroms)
 Number     Number       Type             X           Y           Z
 ---------------------------------------------------------------------
      1          8           0        0.000118    0.734049    0.000000
      2          8           0        0.000118   -0.733817    0.000000
      3          1           0        0.959926    0.871995    0.000000
      4          1           0       -0.961813   -0.873851    0.000000
 ---------------------------------------------------------------------
 Rotational constants (GHZ):         298.4082670          26.6903750          24.4991136
 Standard basis: 6-31G(d,p) (6D, 7F)
 There are    30 symmetry adapted cartesian basis functions of A'  symmetry.
 There are    10 symmetry adapted cartesian basis functions of A"  symmetry.
 There are    30 symmetry adapted basis functions of A'  symmetry.
 There are    10 symmetry adapted basis functions of A"  symmetry.
    40 basis functions,    70 primitive gaussians,    40 cartesian basis functions
     9 alpha electrons        9 beta electrons
       nuclear repulsion energy        36.5195342761 Hartrees.
 NAtoms=    4 NActive=    4 NUniq=    4 SFac= 1.00D+00 NAtFMM=   60 NAOKFM=F Big=F
 Integral buffers will be    131072 words long.
 Raffenetti 2 integral format.
 Two-electron integral symmetry is turned on.
 One-electron integrals computed using PRISM.
 NBasis=    40 RedAO= T EigKep=  1.12D-02  NBF=    30    10
 NBsUse=    40 1.00D-06 EigRej= -1.00D+00 NBFU=    30    10
 Initial guess from the checkpoint file:  "/gpfs/home/gdb20/code/input_macros/temp/h2o2_b3lyp_6-31++Gdp/h2o2_b3lyp_6-31++Gdp.chk"
 B after Tr=    -0.000000    0.000000    0.000000
         Rot=    0.999999    0.000000    0.000000    0.001170 Ang=   0.13 deg.
 Initial guess orbital symmetries:
 Alpha Orbitals:
       Occupied  (A') (A') (A') (A') (A') (A') (A") (A') (A")
       Virtual   (A') (A') (A') (A') (A') (A') (A") (A') (A") (A')
                 (A') (A') (A') (A") (A") (A') (A") (A') (A') (A')
                 (A") (A') (A') (A") (A") (A') (A') (A') (A') (A')
                 (A')
 Beta  Orbitals:
       Occupied  (A') (A') (A') (A') (A') (A') (A") (A') (A")
       Virtual   (A') (A') (A') (A') (A') (A') (A") (A') (A") (A')
                 (A') (A') (A') (A") (A") (A') (A") (A') (A') (A')
                 (A") (A') (A') (A") (A") (A') (A') (A') (A') (A')
                 (A')
 Initial guess <Sx>= 0.0000 <Sy>= 0.0000 <Sz>= 0.0000 <S**2>= 0.0000 S= 0.0000
 ExpMin= 1.61D-01 ExpMax= 5.48D+03 ExpMxC= 8.25D+02 IAcc=3 IRadAn=         5 AccDes= 0.00D+00
 Harris functional with IExCor=  402 and IRadAn=       5 diagonalized for initial guess.
 HarFok:  IExCor=  402 AccDes= 0.00D+00 IRadAn=         5 IDoV= 1 UseB2=F ITyADJ=14
 ICtDFT=  3500011 ScaDFX=  1.000000  1.000000  1.000000  1.000000
 FoFCou: FMM=F IPFlag=           0 FMFlag=      100000 FMFlg1=           0
         NFxFlg=           0 DoJE=T BraDBF=F KetDBF=T FulRan=T
         wScrn=  0.000000 ICntrl=       500 IOpCl=  0 I1Cent=   200000004 NGrid=           0
         NMat0=    1 NMatS0=      1 NMatT0=    0 NMatD0=    1 NMtDS0=    0 NMtDT0=    0
 Petite list used in FoFCou.
 Keep R1 and R2 ints in memory in symmetry-blocked form, NReq=1228213.
 Requested convergence on RMS density matrix=1.00D-08 within 128 cycles.
 Requested convergence on MAX density matrix=1.00D-06.
 Requested convergence on             energy=1.00D-06.
 No special actions if energy rises.
 Integral accuracy reduced to 1.0D-05 until final iterations.
 Initial convergence to 1.0D-05 achieved.  Increase integral accuracy.
 SCF Done:  E(UB3LYP) =  -151.542104129     A.U. after   10 cycles
            NFock= 10  Conv=0.64D-08     -V/T= 2.0081
 <Sx>= 0.0000 <Sy>= 0.0000 <Sz>= 0.0000 <S**2>= 0.0000 S= 0.0000
 <L.S>= 0.000000000000E+00
 Annihilation of the first spin contaminant:
 S**2 before annihilation     0.0000,   after    -0.0000
 Calling FoFJK, ICntrl=      2127 FMM=F ISym2X=1 I1Cent= 0 IOpClX= 1 NMat=1 NMatS=1 NMatT=0.
 ***** Axes restored to original set *****
 -------------------------------------------------------------------
 Center     Atomic                   Forces (Hartrees/Bohr)
 Number     Number              X              Y              Z
 -------------------------------------------------------------------
      1        8           0.000552012   -0.000505904    0.000000000
      2        8           0.001151840    0.002106004   -0.000000000
      3        1           0.000097899    0.000161038   -0.000000000
      4        1          -0.001801751   -0.001761139   -0.000000000
 -------------------------------------------------------------------
 Cartesian Forces:  Max     0.002106004 RMS     0.001028999

 GradGradGradGradGradGradGradGradGradGradGradGradGradGradGradGradGradGrad
 Berny optimization.
 Using GEDIIS/GDIIS optimizer.
 FormGI is forming the generalized inverse of G from B-inverse, IUseBI=4.
 Internal  Forces:  Max     0.002514868 RMS     0.001078210
 Search for a local minimum.
 Step number   7 out of a maximum of   20
 All quantities printed in internal units (Hartrees-Bohrs-Radians)
 Mixed Optimization -- RFO/linear search
 Update second derivatives using D2CorX and points    3    4    5    6    7
 DE= -2.71D-04 DEPred=-2.27D-04 R= 1.19D+00
 TightC=F SS=  1.41D+00  RLast= 3.61D-02 DXNew= 8.4853D-01 1.0818D-01
 Trust test= 1.19D+00 RLast= 3.61D-02 DXMaxT set to 5.05D-01
 The second derivative matrix:
                          R1        R2        R3        A1        A2
           R1           0.26701
           R2           0.05710   0.34910
           R3          -0.07019   0.14264   0.49706
           A1           0.05172   0.04395  -0.03820   0.20245
           A2           0.04805   0.03129  -0.02481   0.04214   0.19608
           D1           0.00000   0.00000  -0.00000   0.00000   0.00000
                          D1
           D1           0.00230
 ITU=  1  1  0  0  0  1  0
 Use linear search instead of GDIIS.
     Eigenvalues ---    0.00230   0.15421   0.18029   0.18376   0.40532
     Eigenvalues ---    0.58812
 RFO step:  Lambda=-1.92472334D-05 EMin= 2.30000000D-03
 Quartic linear search produced a step of  0.04595.
 Iteration  1 RMS(Cart)=  0.00344162 RMS(Int)=  0.00000211
 Iteration  2 RMS(Cart)=  0.00000238 RMS(Int)=  0.00000000
 Iteration  3 RMS(Cart)=  0.00000000 RMS(Int)=  0.00000000
 ClnCor:  largest displacement from symmetrization is 1.20D-09 for atom     3.
 Variable       Old X    -DE/DX   Delta X   Delta X   Delta X     New X
                                 (Linear)    (Quad)   (Total)
    R1        2.77386  -0.00073  -0.00119  -0.00365  -0.00484   2.76902
    R2        1.83241  -0.00018  -0.00078   0.00397   0.00319   1.83560
    R3        1.83695  -0.00251  -0.00003  -0.00671  -0.00674   1.83021
    A1        1.71354   0.00006  -0.00083   0.00081  -0.00002   1.71352
    A2        1.71536  -0.00028  -0.00012  -0.00145  -0.00157   1.71378
    D1        3.14159   0.00000   0.00000   0.00000   0.00000   3.14159
         Item               Value     Threshold  Converged?
 Maximum Force            0.002515     0.000450     NO 
 RMS     Force            0.001078     0.000300     NO 
 Maximum Displacement     0.006113     0.001800     NO 
 RMS     Displacement     0.003440     0.001200     NO 
 Predicted change in Energy=-1.019416D-05
 GradGradGradGradGradGradGradGradGradGradGradGradGradGradGradGradGradGrad

                          Input orientation:                          
 ---------------------------------------------------------------------
 Center     Atomic      Atomic             Coordinates (Angstroms)
 Number     Number       Type             X           Y           Z
 ---------------------------------------------------------------------
      1          8           0       -1.536439    2.174581   -0.000000
      2          8           0       -0.321397    1.355563   -0.000000
      3          1           0       -2.188419    1.454538   -0.000000
      4          1           0        0.328855    2.073318   -0.000000
 ---------------------------------------------------------------------
                    Distance matrix (angstroms):
                    1          2          3          4
     1  O    0.000000
     2  O    1.465304   0.000000
     3  H    0.971360   1.869643   0.000000
     4  H    1.868040   0.968504   2.592211   0.000000
 Stoichiometry    H2O2
 Framework group  CS[SG(H2O2)]
 Deg. of freedom     5
 Full point group                 CS      NOp   2
 Largest Abelian subgroup         CS      NOp   2
 Largest concise Abelian subgroup C1      NOp   1
                         Standard orientation:                         
 ---------------------------------------------------------------------
 Center     Atomic      Atomic             Coordinates (Angstroms)
 Number     Number       Type             X           Y           Z
 ---------------------------------------------------------------------
      1          8           0       -0.000159    0.732643    0.000000
      2          8           0       -0.000159   -0.732660    0.000000
      3          1           0        0.961324    0.870810    0.000000
      4          1           0       -0.958780   -0.870673    0.000000
 ---------------------------------------------------------------------
 Rotational constants (GHZ):         298.8814676          26.7869259          24.5836436
 Standard basis: 6-31G(d,p) (6D, 7F)
 There are    30 symmetry adapted cartesian basis functions of A'  symmetry.
 There are    10 symmetry adapted cartesian basis functions of A"  symmetry.
 There are    30 symmetry adapted basis functions of A'  symmetry.
 There are    10 symmetry adapted basis functions of A"  symmetry.
    40 basis functions,    70 primitive gaussians,    40 cartesian basis functions
     9 alpha electrons        9 beta electrons
       nuclear repulsion energy        36.5768446766 Hartrees.
 NAtoms=    4 NActive=    4 NUniq=    4 SFac= 1.00D+00 NAtFMM=   60 NAOKFM=F Big=F
 Integral buffers will be    131072 words long.
 Raffenetti 2 integral format.
 Two-electron integral symmetry is turned on.
 One-electron integrals computed using PRISM.
 NBasis=    40 RedAO= T EigKep=  1.11D-02  NBF=    30    10
 NBsUse=    40 1.00D-06 EigRej= -1.00D+00 NBFU=    30    10
 Initial guess from the checkpoint file:  "/gpfs/home/gdb20/code/input_macros/temp/h2o2_b3lyp_6-31++Gdp/h2o2_b3lyp_6-31++Gdp.chk"
 B after Tr=    -0.000000   -0.000000    0.000000
         Rot=    1.000000    0.000000    0.000000    0.000115 Ang=   0.01 deg.
 Initial guess orbital symmetries:
 Alpha Orbitals:
       Occupied  (A') (A') (A') (A') (A') (A') (A") (A') (A")
       Virtual   (A') (A') (A') (A') (A') (A') (A") (A') (A") (A')
                 (A') (A') (A') (A") (A") (A') (A") (A') (A') (A')
                 (A") (A') (A') (A") (A") (A') (A') (A') (A') (A')
                 (A')
 Beta  Orbitals:
       Occupied  (A') (A') (A') (A') (A') (A') (A") (A') (A")
       Virtual   (A') (A') (A') (A') (A') (A') (A") (A') (A") (A')
                 (A') (A') (A') (A") (A") (A') (A") (A') (A') (A')
                 (A") (A') (A') (A") (A") (A') (A') (A') (A') (A')
                 (A')
 Initial guess <Sx>= 0.0000 <Sy>= 0.0000 <Sz>= 0.0000 <S**2>=-0.0000 S=-0.0000
 Keep R1 and R2 ints in memory in symmetry-blocked form, NReq=1228213.
 Requested convergence on RMS density matrix=1.00D-08 within 128 cycles.
 Requested convergence on MAX density matrix=1.00D-06.
 Requested convergence on             energy=1.00D-06.
 No special actions if energy rises.
 SCF Done:  E(UB3LYP) =  -151.542105823     A.U. after    8 cycles
            NFock=  8  Conv=0.25D-08     -V/T= 2.0081
 <Sx>= 0.0000 <Sy>= 0.0000 <Sz>= 0.0000 <S**2>=-0.0000 S=-0.0000
 <L.S>= 0.000000000000E+00
 Annihilation of the first spin contaminant:
 S**2 before annihilation    -0.0000,   after    -0.0000
 Calling FoFJK, ICntrl=      2127 FMM=F ISym2X=1 I1Cent= 0 IOpClX= 1 NMat=1 NMatS=1 NMatT=0.
 ***** Axes restored to original set *****
 -------------------------------------------------------------------
 Center     Atomic                   Forces (Hartrees/Bohr)
 Number     Number              X              Y              Z
 -------------------------------------------------------------------
      1        8          -0.001957724   -0.001328903   -0.000000000
      2        8           0.000103270   -0.000753267   -0.000000000
      3        1           0.001061731    0.001548820   -0.000000000
      4        1           0.000792723    0.000533350   -0.000000000
[...]
     2  O    0.000000   0.000000  -0.000000  -0.000000
     3  H   -0.000000  -0.000000   0.000000   0.000000
     4  H    0.000000  -0.000000   0.000000  -0.000000
 Mulliken charges and spin densities:
               1          2
     1  O   -0.343422   0.000000
     2  O   -0.343431   0.000000
     3  H    0.343427   0.000000
     4  H    0.343425  -0.000000
 Sum of Mulliken charges =  -0.00000   0.00000
 Mulliken charges and spin densities with hydrogens summed into heavy atoms:
               1          2
     1  O    0.000006   0.000000
     2  O   -0.000006   0.000000
 APT charges:
               1
     1  O   -0.269685
     2  O   -0.269693
     3  H    0.269690
     4  H    0.269688
 Sum of APT charges =   0.00000
 APT charges with hydrogens summed into heavy atoms:
               1
     1  O    0.000005
     2  O   -0.000005
 Electronic spatial extent (au):  <R**2>=             66.1850
 Charge=              0.0000 electrons
 Dipole moment (field-independent basis, Debye):
    X=              0.0000    Y=             -0.0001    Z=              0.0000  Tot=              0.0001
 Quadrupole moment (field-independent basis, Debye-Ang):
   XX=             -7.9162   YY=            -11.1379   ZZ=            -12.4946
   XY=              3.4495   XZ=              0.0000   YZ=              0.0000
 Traceless Quadrupole moment (field-independent basis, Debye-Ang):
   XX=              2.6000   YY=             -0.6216   ZZ=             -1.9784
   XY=              3.4495   XZ=              0.0000   YZ=              0.0000
 Octapole moment (field-independent basis, Debye-Ang**2):
  XXX=              0.0001  YYY=             -0.0003  ZZZ=             -0.0000  XYY=             -0.0002
  XXY=             -0.0001  XXZ=              0.0000  XZZ=             -0.0000  YZZ=             -0.0000
  YYZ=              0.0000  XYZ=              0.0000
 Hexadecapole moment (field-independent basis, Debye-Ang**3):
 XXXX=             -8.5097 YYYY=            -43.4007 ZZZZ=             -8.7609 XXXY=              1.2019
 XXXZ=              0.0000 YYYX=              0.9982 YYYZ=             -0.0000 ZZZX=             -0.0000
 ZZZY=             -0.0000 XXYY=             -7.2151 XXZZ=             -3.5484 YYZZ=             -9.9248
 XXYZ=             -0.0000 YYXZ=              0.0000 ZZXY=             -0.6450
 N-N= 3.655832993418D+01 E-N=-4.313517617178D+02  KE= 1.503250151472D+02
 Symmetry A'   KE= 1.405720718784D+02
 Symmetry A"   KE= 9.752943268810D+00
 Symmetry A'   SP= 6.661233664350D-15
 Symmetry A"   SP=-5.308285760653D-16
  Exact polarizability:      11.078       2.464      14.008       0.000       0.000       4.756
 Approx polarizability:      14.385       2.096      21.348       0.000       0.000       5.618
                          Isotropic Fermi Contact Couplings
        Atom                 a.u.       MegaHertz       Gauss      10(-4) cm-1
     1  O(17)             -0.00000       0.00000       0.00000       0.00000
     2  O(17)              0.00000      -0.00000      -0.00000      -0.00000
     3  H(1)              -0.00000      -0.00000      -0.00000      -0.00000
     4  H(1)              -0.00000      -0.00000      -0.00000      -0.00000
 --------------------------------------------------------
       Center         ----  Spin Dipole Couplings  ----
                      3XX-RR        3YY-RR        3ZZ-RR
 --------------------------------------------------------
     1   Atom        0.000000      0.000000      0.000000
     2   Atom        0.000000      0.000000      0.000000
     3   Atom        0.000000      0.000000      0.000000
     4   Atom        0.000000      0.000000      0.000000
 --------------------------------------------------------
                        XY            XZ            YZ
 --------------------------------------------------------
     1   Atom        0.000000      0.000000      0.000000
     2   Atom        0.000000      0.000000      0.000000
     3   Atom        0.000000      0.000000      0.000000
     4   Atom        0.000000      0.000000      0.000000
 --------------------------------------------------------


 ---------------------------------------------------------------------------------
              Anisotropic Spin Dipole Couplings in Principal Axis System
 ---------------------------------------------------------------------------------

       Atom             a.u.   MegaHertz   Gauss  10(-4) cm-1        Axes

              Baa     0.0000    -0.000    -0.000    -0.000  1.0000  0.0000  0.0000
     1 O(17)  Bbb     0.0000    -0.000    -0.000    -0.000 -0.0000  1.0000  0.0000
              Bcc     0.0000    -0.000    -0.000    -0.000  0.0000  0.0000  1.0000
 
              Baa     0.0000    -0.000    -0.000    -0.000  1.0000  0.0000  0.0000
     2 O(17)  Bbb     0.0000    -0.000    -0.000    -0.000 -0.0000  1.0000  0.0000
              Bcc     0.0000    -0.000    -0.000    -0.000  0.0000  0.0000  1.0000
 
              Baa     0.0000     0.000     0.000     0.000  1.0000  0.0000  0.0000
     3 H(1)   Bbb     0.0000     0.000     0.000     0.000 -0.0000  1.0000  0.0000
              Bcc     0.0000     0.000     0.000     0.000  0.0000  0.0000  1.0000
 
              Baa     0.0000     0.000     0.000     0.000  1.0000  0.0000  0.0000
     4 H(1)   Bbb     0.0000     0.000     0.000     0.000 -0.0000  1.0000  0.0000
              Bcc     0.0000     0.000     0.000     0.000  0.0000  0.0000  1.0000
 

 ---------------------------------------------------------------------------------

 Calling FoFJK, ICntrl=    100127 FMM=F ISym2X=1 I1Cent= 0 IOpClX= 1 NMat=1 NMatS=1 NMatT=0.
 Full mass-weighted force constant matrix:
 Low frequencies --- -256.3147   -0.0021   -0.0021   -0.0020    2.9617    3.2545
 Low frequencies ---   12.7842  959.0065 1243.2899
 ******    1 imaginary frequencies (negative Signs) ****** 
 Diagonal vibrational polarizability:
        0.0989702       2.4649420     121.3039504
 Harmonic frequencies (cm**-1), IR intensities (KM/Mole), Raman scattering
 activities (A**4/AMU), depolarization ratios for plane and unpolarized
 incident light, reduced masses (AMU), force constants (mDyne/A),
 and normal coordinates:
                      1                      2                      3
                     A"                     A'                     A'
 Frequencies --   -256.3146               959.0065              1243.2899
 Red. masses --      1.0671                15.2446                 1.0671
 Frc consts  --      0.0413                 8.2606                 0.9718
 IR Inten    --    296.1342                 0.0000               140.0048
  Atom  AN      X      Y      Z        X      Y      Z        X      Y      Z
     1   8    -0.00   0.00  -0.04     0.00   0.69  -0.00     0.01  -0.04  -0.00
     2   8     0.00  -0.00  -0.04    -0.00  -0.69  -0.00     0.01  -0.04  -0.00
     3   1     0.00  -0.00   0.71     0.11   0.11   0.00    -0.10   0.70   0.00
     4   1    -0.00   0.00   0.71    -0.11  -0.11   0.00    -0.10   0.70   0.00
                      4                      5                      6
                     A'                     A'                     A'
 Frequencies --   1540.0303              3792.5451              3801.7830
 Red. masses --      1.1194                 1.0695                 1.0671
 Frc consts  --      1.5641                 9.0638                 9.0871
 IR Inten    --      0.0000                 0.0002                67.9340
  Atom  AN      X      Y      Z        X      Y      Z        X      Y      Z
     1   8     0.06  -0.01   0.00    -0.04  -0.01   0.00    -0.04  -0.01   0.00
     2   8    -0.06   0.01   0.00     0.04   0.01   0.00    -0.04  -0.01   0.00
     3   1    -0.03   0.70  -0.00     0.70   0.09  -0.00     0.70   0.10  -0.00
     4   1     0.03  -0.70  -0.00    -0.70  -0.09  -0.00     0.70   0.10  -0.00

 -------------------
 - Thermochemistry -
 -------------------
 Temperature   298.150 Kelvin.  Pressure   1.00000 Atm.
 Atom     1 has atomic number  8 and mass  15.99491
 Atom     2 has atomic number  8 and mass  15.99491
 Atom     3 has atomic number  1 and mass   1.00783
 Atom     4 has atomic number  1 and mass   1.00783
 Molecular mass:    34.00548 amu.
 Principal axes and moments of inertia in atomic units:
                           1         2         3
     Eigenvalues --     6.02962  67.49436  73.52398
           X            0.09849   0.99514   0.00000
           Y            0.99514  -0.09849   0.00000
           Z           -0.00000  -0.00000   1.00000
 This molecule is an asymmetric top.
 Rotational symmetry number  1.
 Rotational temperatures (Kelvin)     14.36475     1.28328     1.17804
 Rotational constants (GHZ):         299.31282    26.73914    24.54629
    1 imaginary frequencies ignored.
 Zero-point vibrational energy      67808.3 (Joules/Mol)
                                   16.20656 (Kcal/Mol)
 Vibrational temperatures:   1379.80  1788.82  2215.76  5456.63  5469.92
          (Kelvin)
 
 Zero-point correction=                           0.025827 (Hartree/Particle)
 Thermal correction to Energy=                    0.028721
 Thermal correction to Enthalpy=                  0.029665
 Thermal correction to Gibbs Free Energy=         0.003675
 Sum of electronic and zero-point Energies=           -151.516285
 Sum of electronic and thermal Energies=              -151.513391
 Sum of electronic and thermal Enthalpies=            -151.512447
 Sum of electronic and thermal Free Energies=         -151.538437
 
                     E (Thermal)             CV                S
                      KCal/Mol        Cal/Mol-Kelvin    Cal/Mol-Kelvin
 Total                   18.023              6.629             54.701
 Electronic               0.000              0.000              0.000
 Translational            0.889              2.981             36.503
 Rotational               0.889              2.981             18.043
 Vibrational             16.245              0.668              0.155
                       Q            Log10(Q)             Ln(Q)
 Total Bot       0.204044D-01         -1.690275         -3.892002
 Total V=0       0.154603D+11         10.189218         23.461541
 Vib (Bot)       0.133693D-11        -11.873891        -27.340644
 Vib (V=0)       0.101298D+01          0.005602          0.012899
 Electronic      0.100000D+01          0.000000          0.000000
 Translational   0.779430D+07          6.891777         15.868904
 Rotational      0.195812D+04          3.291839          7.579739
 ***** Axes restored to original set *****
 -------------------------------------------------------------------
 Center     Atomic                   Forces (Hartrees/Bohr)
 Number     Number              X              Y              Z
 -------------------------------------------------------------------
      1        8           0.000002658   -0.000007847   -0.000000000
      2        8           0.000001212    0.000001042   -0.000000000
      3        1           0.000000034    0.000006130    0.000000000
      4        1          -0.000003904    0.000000675    0.000000000
 -------------------------------------------------------------------
 Cartesian Forces:  Max     0.000007847 RMS     0.000003221
 FormGI is forming the generalized inverse of G from B-inverse, IUseBI=4.

 GradGradGradGradGradGradGradGradGradGradGradGradGradGradGradGradGradGrad
 Berny optimization.
 Internal  Forces:  Max     0.000007124 RMS     0.000004618
 Search for a local minimum.
 Step number   1 out of a maximum of    2
 All quantities printed in internal units (Hartrees-Bohrs-Radians)
 Second derivative matrix not updated -- analytic derivatives used.
 The second derivative matrix:
                          R1        R2        R3        A1        A2
           R1           0.31263
           R2          -0.00637   0.51705
           R3          -0.00637  -0.00152   0.51706
           A1           0.06696   0.00289   0.00195   0.22767
           A2           0.06695   0.00195   0.00289   0.04153   0.22766
           D1           0.00000   0.00000   0.00000   0.00000   0.00000
                          D1
           D1          -0.00388
 ITU=  0
     Eigenvalues ---   -0.00388   0.18613   0.19348   0.38793   0.51594
     Eigenvalues ---    0.51858
 Eigenvalue     1 is  -3.88D-03 should be greater than     0.000000 Eigenvector:
                          D1        A1        A2        R1        R3
   1                   -1.00000   0.00000  -0.00000  -0.00000   0.00000
                          R2
   1                   -0.00000
 Angle between quadratic step and forces=  16.47 degrees.
 Linear search not attempted -- first point.
 Iteration  1 RMS(Cart)=  0.00002786 RMS(Int)=  0.00000000
 Iteration  2 RMS(Cart)=  0.00000000 RMS(Int)=  0.00000000
 ClnCor:  largest displacement from symmetrization is 1.92D-15 for atom     3.
 Variable       Old X    -DE/DX   Delta X   Delta X   Delta X     New X
                                 (Linear)    (Quad)   (Total)
    R1        2.77129  -0.00000   0.00000  -0.00001  -0.00001   2.77128
    R2        1.83201  -0.00000   0.00000  -0.00001  -0.00001   1.83200
    R3        1.83201  -0.00000   0.00000  -0.00000  -0.00000   1.83200
    A1        1.71470   0.00001   0.00000   0.00004   0.00004   1.71474
    A2        1.71478  -0.00001   0.00000  -0.00003  -0.00003   1.71474
    D1        3.14159  -0.00000   0.00000  -0.00000   0.00000   3.14159
         Item               Value     Threshold  Converged?
 Maximum Force            0.000007     0.000450     YES
 RMS     Force            0.000005     0.000300     YES
 Maximum Displacement     0.000029     0.001800     YES
 RMS     Displacement     0.000028     0.001200     YES
 Predicted change in Energy=-2.962539D-10
 Optimization completed.
    -- Stationary point found.
                           ----------------------------
                           !   Optimized Parameters   !
                           ! (Angstroms and Degrees)  !
 --------------------------                            --------------------------
 ! Name  Definition              Value          Derivative Info.                !
 --------------------------------------------------------------------------------
 ! R1    R(1,2)                  1.4665         -DE/DX =    0.0                 !
 ! R2    R(1,3)                  0.9695         -DE/DX =    0.0                 !
 ! R3    R(2,4)                  0.9695         -DE/DX =    0.0                 !
 ! A1    A(2,1,3)               98.2452         -DE/DX =    0.0                 !
 ! A2    A(1,2,4)               98.2494         -DE/DX =    0.0                 !
 ! D1    D(3,1,2,4)            180.0            -DE/DX =    0.0                 !
 --------------------------------------------------------------------------------
 GradGradGradGradGradGradGradGradGradGradGradGradGradGradGradGradGradGrad


 ----------------------------------------------------------------------

 Electric dipole moment (input orientation):
 (Debye = 10**-18 statcoulomb cm , SI units = C m)
                  (au)            (Debye)         (10**-30 SI)
   Tot        0.346149D-04      0.879823D-04      0.293477D-03
   x          0.282466D-04      0.717957D-04      0.239485D-03
   y         -0.200080D-04     -0.508552D-04     -0.169635D-03
   z          0.000000D+00      0.000000D+00      0.000000D+00

 Dipole polarizability, Alpha (input orientation).
 (esu units = cm**3 , SI units = C**2 m**2 J**-1)
 Alpha(0;0):
               (au)            (10**-24 esu)      (10**-40 SI)
   iso        0.994737D+01      0.147405D+01      0.164010D+01
   aniso      0.923469D+01      0.136844D+01      0.152259D+01
   xx         0.153770D+02      0.227864D+01      0.253533D+01
   yx        -0.428232D+00     -0.634575D-01     -0.706059D-01
   yy         0.970888D+01      0.143871D+01      0.160078D+01
   zx         0.000000D+00      0.000000D+00      0.000000D+00
   zy         0.000000D+00      0.000000D+00      0.000000D+00
   zz         0.475620D+01      0.704796D+00      0.784191D+00

 ----------------------------------------------------------------------

 Dipole orientation:
     8          0.96670023          1.36475607         -4.74574373
     8          1.00532390          1.41928372         -1.97525853
     1         -0.08464416         -0.11949789         -4.96467979
     1          2.05665624          2.90352066         -1.75618987

 Electric dipole moment (dipole orientation):
 (Debye = 10**-18 statcoulomb cm , SI units = C m)
                  (au)            (Debye)         (10**-30 SI)
   Tot        0.346149D-04      0.879823D-04      0.293477D-03
   x          0.000000D+00      0.000000D+00      0.000000D+00
   y          0.000000D+00      0.000000D+00      0.000000D+00
   z          0.346149D-04      0.879823D-04      0.293477D-03

 Dipole polarizability, Alpha (dipole orientation).
 (esu units = cm**3 , SI units = C**2 m**2 J**-1)
 Alpha(0;0):
               (au)            (10**-24 esu)      (10**-40 SI)
   iso        0.994737D+01      0.147405D+01      0.164010D+01
   aniso      0.923469D+01      0.136844D+01      0.152259D+01
   xx         0.690864D+01      0.102375D+01      0.113908D+01
   yx         0.303875D+01      0.450297D+00      0.501023D+00
   yy         0.904621D+01      0.134051D+01      0.149152D+01
   zx         0.146321D+01      0.216826D+00      0.241251D+00
   zy         0.206572D+01      0.306108D+00      0.340591D+00
   zz         0.138873D+02      0.205788D+01      0.228970D+01

 ----------------------------------------------------------------------
 Unable to Open any file for archive entry.
 1\1\GINC-HPC-I30-6\Freq\UB3LYP\6-31G(d,p)\H2O2\GDB20\05-Oct-2024\0\\#N
  Geom=AllCheck Guess=TCheck SCRF=Check GenChk UB3LYP/6-31G(d,p) Freq\\
 created with so and so tool\\0,1\O,-1.5377601342,2.1737935618,0.\O,-0.
 3209653065,1.3552312196,0.\H,-2.1886490025,1.4553268637,0.\H,0.3299744
 431,2.0736483549,0.\\Version=EM64L-G16RevC.01\State=1-A'\HF=-151.54211
 15\S2=0.\S2-1=0.\S2A=0.\RMSD=3.230e-10\RMSF=3.221e-06\ZeroPoint=0.0258
 268\Thermal=0.0287207\ETot=-151.5133907\HTot=-151.5124466\GTot=-151.53
 84367\Dipole=0.0000282,-0.00002,0.\DipoleDeriv=-0.2676273,0.0503533,0.
 ,0.0267822,-0.1619665,0.,0.,0.,-0.379462,-0.2676333,0.0503621,0.,0.026
 7767,-0.1619658,0.,0.,0.,-0.3794786,0.2676362,-0.050353,0.,-0.0267798,
 0.1619653,0.,0.,0.,0.379468,0.2676244,-0.0503624,0.,-0.0267791,0.16196
 71,0.,0.,0.,0.3794726\Polar=15.377019,-0.4282322,9.7088849,0.,0.,4.756
 1958\Quadrupole=2.6595575,-1.1886656,-1.4708919,2.0758498,0.,0.\PG=CS 
 [SG(H2O2)]\NImag=1\\0.47069648,0.15214518,0.43814303,0.,0.,-0.00116815
 ,-0.20597031,0.07833598,0.,0.47074376,0.07833671,-0.12884397,0.,0.1521
 5306,0.43812285,0.,0.,-0.00118519,0.,0.,-0.00117576,-0.23038730,-0.202
 82610,0.,-0.03434774,-0.02765502,0.,0.27190295,-0.26710076,-0.32511371
 ,0.,0.03662025,0.01581212,0.,0.22367364,0.31298827,0.,0.,0.00117315,0.
 ,0.,0.00118302,0.,0.,-0.00117469,-0.03433886,-0.02765505,0.,-0.2304257
 1,-0.20283475,0.,-0.00716790,0.00680687,0.,0.27193247,0.03661888,0.015
 81465,0.,-0.26710929,-0.32509100,0.,0.00680748,-0.00368668,0.,0.223682
 93,0.31296304,0.,0.,0.00118019,0.,0.,0.00117793,0.,0.,-0.00118147,0.,0
 .,-0.00117665\\-0.00000266,0.00000785,0.,-0.00000121,-0.00000104,0.,-0
 .00000003,-0.00000613,0.,0.00000390,-0.00000068,0.\\\@
 The archive entry for this job was punched.


 THE TEST OF A FIRST RATE INTELLIGENCE IS THE ABILITY TO HOLD TWO OPPOSED
 IDEAS IN THE MIND AT THE SAME TIME, AND STILL RETAIN THE ABILITY TO FUNCTION.
 ONE SHOULD, FOR EXAMPLE, BE ABLE TO SEE THAT THINGS ARE HOPELESS AND YET BE
 DETERMINED TO MAKE THEM OTHERWISE.

                                                       -- F. SCOTT FITZGERALD
 Job cpu time:       0 days  0 hours  0 minutes 22.7 seconds.
 Elapsed time:       0 days  0 hours  0 minutes 22.7 seconds.
 File lengths (MBytes):  RWF=    136 Int=      0 D2E=      0 Chk=     16 Scr=     16
 Normal termination of Gaussian 16 at Sat Oct  5 18:29:48 2024.
