 Entering Gaussian System, Link 0=g16
 Initial command:
 /gpfs/research/software/gaussian16/amd/g16/l1.exe "/gpfs/home/gdb20/code/input_macros/temp/oh_radical_b3lyp_6-31++Gdp/Gau-3488006.inp" -scrdir="/gpfs/home/gdb20/code/input_macros/temp/oh_radical_b3lyp_6-31++Gdp/"
 Entering Link 1 = /gpfs/research/software/gaussian16/amd/g16/l1.exe PID=   3488007.
  
 Copyright (c) 1988-2019, Gaussian, Inc.  All Rights Reserved.
  
 This is part of the Gaussian(R) 16 program.  It is based on
 the Gaussian(R) 09 system (copyright 2009, Gaussian, Inc.),
 the Gaussian(R) 03 system (copyright 2003, Gaussian, Inc.),
 the Gaussian(R) 98 system (copyright 1998, Gaussian, Inc.),
 the Gaussian(R) 94 system (copyright 1995, Gaussian, Inc.),
 the Gaussian 92(TM) system (copyright 1992, Gaussian, Inc.),
 the Gaussian 90(TM) system (copyright 1990, Gaussian, Inc.),
 the Gaussian 88(TM) system (copyright 1988, Gaussian, Inc.),
 the Gaussian 86(TM) system (copyright 1986, Carnegie Mellon
 University), and the Gaussian 82(TM) system (copyright 1983,
 Carnegie Mellon University). Gaussian is a federally registered
 trademark of Gaussian, Inc.
  
 This software contains proprietary and confidential information,
 including trade secrets, belonging to Gaussian, Inc.
  
 This software is provided under written license and may be
 used, copied, transmitted, or stored only in accord with that
 written license.
  
 The following legend is applicable only to US Government
 contracts under FAR:
  
                    RESTRICTED RIGHTS LEGEND
  
 Use, reproduction and disclosure by the US Government is
 subject to restrictions as set forth in subparagraphs (a)
 and (c) of the Commercial Computer Software - Restricted
 Rights clause in FAR 52.227-19.
  
 Gaussian, Inc.
 340 Quinnipiac St., Bldg. 40, Wallingford CT 06492
  
  
 ---------------------------------------------------------------
 Warning -- This program may not be used in any manner that
 competes with the business of Gaussian, Inc. or will provide
 assistance to any competitor of Gaussian, Inc.  The licensee
 of this program is prohibited from giving any competitor of
 Gaussian, Inc. access to this program.  By using this program,
 the user acknowledges that Gaussian, Inc. is engaged in the
 business of creating and licensing software in the field of
 computational chemistry and represents and warrants to the
 licensee that it is not a competitor of Gaussian, Inc. and that
 it will not use this program in any manner prohibited above.
 ---------------------------------------------------------------
  

 Cite this work as:
 Gaussian 16, Revision C.01,
 M. J. Frisch, G. W. Trucks, H. B. Schlegel, G. E. Scuseria, 
 M. A. Robb, J. R. Cheeseman, G. Scalmani, V. Barone, 
 G. A. Petersson, H. Nakatsuji, X. Li, M. Caricato, A. V. Marenich, 
 J. Bloino, B. G. Janesko, R. Gomperts, B. Mennucci, H. P. Hratchian, 
 J. V. Ortiz, A. F. Izmaylov, J. L. Sonnenberg, D. Williams-Young, 
 F. Ding, F. Lipparini, F. Egidi, J. Goings, B. Peng, A. Petrone, 
 T. Henderson, D. Ranasinghe, V. G. Zakrzewski, J. Gao, N. Rega, 
 G. Zheng, W. Liang, M. Hada, M. Ehara, K. Toyota, R. Fukuda, 
 J. Hasegawa, M. Ishida, T. Nakajima, Y. Honda, O. Kitao, H. Nakai, 
 T. Vreven, K. Throssell, J. A. Montgomery, Jr., J. E. Peralta, 
 F. Ogliaro, M. J. Bearpark, J. J. Heyd, E. N. Brothers, K. N. Kudin, 
 V. N. Staroverov, T. A. Keith, R. Kobayashi, J. Normand, 
 K. Raghavachari, A. P. Rendell, J. C. Burant, S. S. Iyengar, 
 J. Tomasi, M. Cossi, J. M. Millam, M. Klene, C. Adamo, R. Cammi, 
 J. W. Ochterski, R. L. Martin, K. Morokuma, O. Farkas, 
 J. B. Foresman, and D. J. Fox, Gaussian, Inc., Wallingford CT, 2019.
 
 ******************************************
 Gaussian 16:  EM64L-G16RevC.01  3-Jul-2019
                 5-Oct-2024 
 ******************************************
 %nprocshared=1
 Will use up to    1 processors via shared memory.
 %mem=2gb
 %chk=/gpfs/home/gdb20/code/input_macros/temp/oh_radical_b3lyp_6-31++Gdp/oh_radic
 al_b3lyp_6-31++Gdp.chk
 ---------------------------
 #ub3lyp/6-31g(d,p) OPT FREQ
 ---------------------------
 1/18=20,19=15,26=3,38=1/1,3;
 2/9=110,12=2,17=6,18=5,40=1/2;
 3/5=1,6=6,7=101,11=2,25=1,30=1,71=1,74=-5,116=2/1,2,3;
 4//1;
 5/5=2,38=5/2;
 6/7=2,8=2,9=2,10=2,28=1/1;
 7//1,2,3,16;
 1/18=20,19=15,26=3/3(2);
 2/9=110/2;
 99//99;
 2/9=110/2;
 3/5=1,6=6,7=101,11=2,25=1,30=1,71=1,74=-5,116=2/1,2,3;
 4/5=5,16=3,69=1/1;
 5/5=2,38=5/2;
 7//1,2,3,16;
 1/18=20,19=15,26=3/3(-5);
 2/9=110/2;
 6/7=2,8=2,9=2,10=2,19=2,28=1/1;
 99/9=1/99;
 ---------------------------
 created with so and so tool
 ---------------------------
 Symbolic Z-matrix:
 Charge =  0 Multiplicity = 2
 O                    -0.282     0.618     0. 
 H                    -1.129     0.606     0. 
 

 GradGradGradGradGradGradGradGradGradGradGradGradGradGradGradGradGradGrad
 Berny optimization.
 Initialization pass.
                           ----------------------------
                           !    Initial Parameters    !
                           ! (Angstroms and Degrees)  !
 --------------------------                            --------------------------
 ! Name  Definition              Value          Derivative Info.                !
 --------------------------------------------------------------------------------
 ! R1    R(1,2)                  0.8471         estimate D2E/DX2                !
 --------------------------------------------------------------------------------
 Trust Radius=3.00D-01 FncErr=1.00D-07 GrdErr=1.00D-06 EigMax=2.50D+02 EigMin=1.00D-04
 Number of steps in this run=     20 maximum allowed number of steps=    100.
 GradGradGradGradGradGradGradGradGradGradGradGradGradGradGradGradGradGrad

                          Input orientation:                          
 ---------------------------------------------------------------------
 Center     Atomic      Atomic             Coordinates (Angstroms)
 Number     Number       Type             X           Y           Z
 ---------------------------------------------------------------------
      1          8           0       -0.282000    0.618000    0.000000
      2          1           0       -1.129000    0.606000    0.000000
 ---------------------------------------------------------------------
 Stoichiometry    HO(2)
 Framework group  C*V[C*(HO)]
 Deg. of freedom     1
 Full point group                 C*V     NOp   4
 Largest Abelian subgroup         C2V     NOp   4
 Largest concise Abelian subgroup C1      NOp   1
                         Standard orientation:                         
 ---------------------------------------------------------------------
 Center     Atomic      Atomic             Coordinates (Angstroms)
 Number     Number       Type             X           Y           Z
 ---------------------------------------------------------------------
      1          8           0        0.000000    0.000000    0.094121
      2          1           0       -0.000000    0.000000   -0.752964
 ---------------------------------------------------------------------
 Rotational constants (GHZ):           0.0000000         742.8738155         742.8738155
 Standard basis: 6-31G(d,p) (6D, 7F)
 There are    11 symmetry adapted cartesian basis functions of A1  symmetry.
 There are     1 symmetry adapted cartesian basis functions of A2  symmetry.
 There are     4 symmetry adapted cartesian basis functions of B1  symmetry.
 There are     4 symmetry adapted cartesian basis functions of B2  symmetry.
 There are    11 symmetry adapted basis functions of A1  symmetry.
 There are     1 symmetry adapted basis functions of A2  symmetry.
 There are     4 symmetry adapted basis functions of B1  symmetry.
 There are     4 symmetry adapted basis functions of B2  symmetry.
    20 basis functions,    35 primitive gaussians,    20 cartesian basis functions
     5 alpha electrons        4 beta electrons
       nuclear repulsion energy         4.9976303195 Hartrees.
 NAtoms=    2 NActive=    2 NUniq=    2 SFac= 1.00D+00 NAtFMM=   60 NAOKFM=F Big=F
 Integral buffers will be    131072 words long.
 Raffenetti 2 integral format.
 Two-electron integral symmetry is turned on.
 One-electron integrals computed using PRISM.
 NBasis=    20 RedAO= T EigKep=  2.46D-02  NBF=    11     1     4     4
 NBsUse=    20 1.00D-06 EigRej= -1.00D+00 NBFU=    11     1     4     4
 ExpMin= 1.61D-01 ExpMax= 5.48D+03 ExpMxC= 8.25D+02 IAcc=3 IRadAn=         5 AccDes= 0.00D+00
 Harris functional with IExCor=  402 and IRadAn=       5 diagonalized for initial guess.
 HarFok:  IExCor=  402 AccDes= 0.00D+00 IRadAn=         5 IDoV= 1 UseB2=F ITyADJ=14
 ICtDFT=  3500011 ScaDFX=  1.000000  1.000000  1.000000  1.000000
 FoFCou: FMM=F IPFlag=           0 FMFlag=      100000 FMFlg1=           0
         NFxFlg=           0 DoJE=T BraDBF=F KetDBF=T FulRan=T
         wScrn=  0.000000 ICntrl=       500 IOpCl=  0 I1Cent=   200000004 NGrid=           0
         NMat0=    1 NMatS0=      1 NMatT0=    0 NMatD0=    1 NMtDS0=    0 NMtDT0=    0
 Petite list used in FoFCou.
 Initial guess orbital symmetries:
 Alpha Orbitals:
       Occupied  (SG) (SG) (SG) (PI) (PI)
       Virtual   (SG) (SG) (PI) (PI) (SG) (SG) (PI) (PI) (DLTA)
                 (DLTA) (SG) (PI) (PI) (SG) (SG)
 Beta  Orbitals:
       Occupied  (SG) (SG) (SG) (PI)
       Virtual   (PI) (SG) (SG) (PI) (PI) (SG) (SG) (PI) (PI) (DLTA)
                 (DLTA) (SG) (PI) (PI) (SG) (SG)
 Initial guess <Sx>= 0.0000 <Sy>= 0.0000 <Sz>= 0.5000 <S**2>= 0.7500 S= 0.5000
 Keep R1 and R2 ints in memory in symmetry-blocked form, NReq=886690.
 Requested convergence on RMS density matrix=1.00D-08 within 128 cycles.
 Requested convergence on MAX density matrix=1.00D-06.
 Requested convergence on             energy=1.00D-06.
 No special actions if energy rises.
 Integral accuracy reduced to 1.0D-05 until final iterations.
 Initial convergence to 1.0D-05 achieved.  Increase integral accuracy.
 SCF Done:  E(UB3LYP) =  -75.7071513276     A.U. after   11 cycles
            NFock= 11  Conv=0.74D-09     -V/T= 2.0037
 <Sx>= 0.0000 <Sy>= 0.0000 <Sz>= 0.5000 <S**2>= 0.7515 S= 0.5008
 <L.S>= 0.000000000000E+00
 Annihilation of the first spin contaminant:
 S**2 before annihilation     0.7515,   after     0.7500

 **********************************************************************

            Population analysis using the SCF Density.

 **********************************************************************

 Orbital symmetries:
 Alpha Orbitals:
       Occupied  (SG) (SG) (SG) (PI) (PI)
       Virtual   (SG) (SG) (PI) (PI) (SG) (SG) (PI) (PI) (DLTA)
                 (DLTA) (SG) (PI) (PI) (SG) (SG)
 Beta  Orbitals:
       Occupied  (SG) (SG) (SG) (PI)
       Virtual   (PI) (SG) (SG) (PI) (SG) (PI) (SG) (PI) (PI) (DLTA)
                 (DLTA) (SG) (PI) (PI) (SG) (SG)
 Unable to determine electronic state:  partially filled degenerate orbitals.
 Alpha  occ. eigenvalues --  -19.20341  -1.05044  -0.48360  -0.41002  -0.33558
 Alpha virt. eigenvalues --    0.10701   0.80075   0.81500   0.86316   0.88171
 Alpha virt. eigenvalues --    1.09462   1.53674   1.57588   1.74604   1.74641
 Alpha virt. eigenvalues --    2.53395   2.74334   2.77116   3.40931   3.72240
  Beta  occ. eigenvalues --  -19.17904  -0.98303  -0.45440  -0.30891
  Beta virt. eigenvalues --   -0.16091   0.11441   0.81690   0.87904   0.89526
  Beta virt. eigenvalues --    0.91373   1.11695   1.58136   1.58668   1.80913
  Beta virt. eigenvalues --    1.81673   2.55696   2.77213   2.77295   3.45175
  Beta virt. eigenvalues --    3.72902
          Condensed to atoms (all electrons):
               1          2
     1  O    8.031927   0.281315
     2  H    0.281315   0.405443
          Atomic-Atomic Spin Densities.
               1          2
     1  O    1.017811   0.002776
     2  H    0.002776  -0.023364
 Mulliken charges and spin densities:
               1          2
     1  O   -0.313242   1.020587
     2  H    0.313242  -0.020587
 Sum of Mulliken charges =  -0.00000   1.00000
 Mulliken charges and spin densities with hydrogens summed into heavy atoms:
               1          2
     1  O   -0.000000   1.000000
 Electronic spatial extent (au):  <R**2>=             14.2105
 Charge=             -0.0000 electrons
 Dipole moment (field-independent basis, Debye):
    X=             -0.0000    Y=              0.0000    Z=             -1.6871  Tot=              1.6871
 Quadrupole moment (field-independent basis, Debye-Ang):
   XX=             -5.1383   YY=             -6.2602   ZZ=             -4.6515
   XY=              0.0000   XZ=              0.0000   YZ=             -0.0000
 Traceless Quadrupole moment (field-independent basis, Debye-Ang):
   XX=              0.2117   YY=             -0.9102   ZZ=              0.6985
   XY=              0.0000   XZ=              0.0000   YZ=             -0.0000
 Octapole moment (field-independent basis, Debye-Ang**2):
  XXX=             -0.0000  YYY=              0.0000  ZZZ=             -1.5930  XYY=             -0.0000
  XXY=              0.0000  XXZ=             -0.2477  XZZ=             -0.0000  YZZ=              0.0000
  YYZ=             -0.3284  XYZ=              0.0000
 Hexadecapole moment (field-independent basis, Debye-Ang**3):
 XXXX=             -3.1775 YYYY=             -4.4170 ZZZZ=             -4.6345 XXXY=              0.0000
 XXXZ=             -0.0000 YYYX=              0.0000 YYYZ=              0.0000 ZZZX=             -0.0000
 ZZZY=              0.0000 XXYY=             -1.2657 XXZZ=             -1.4310 YYZZ=             -1.6486
 XXYZ=              0.0000 YYXZ=             -0.0000 ZZXY=              0.0000
 N-N= 4.997630319477D+00 E-N=-1.892243568655D+02  KE= 7.542896996326D+01
 Symmetry A1   KE= 6.816125383152D+01
 Symmetry A2   KE= 7.507910373164D-35
 Symmetry B1   KE= 2.504078193189D+00
 Symmetry B2   KE= 4.763637938555D+00
 Symmetry A1   SP=-5.861305364674D-15
 Symmetry A2   SP= 7.362388826396D-36
 Symmetry B1   SP= 1.000000000000D+00
 Symmetry B2   SP= 1.787307281342D-15
                          Isotropic Fermi Contact Couplings
        Atom                 a.u.       MegaHertz       Gauss      10(-4) cm-1
     1  O(17)              0.08847     -53.62889     -19.13612     -17.88867
     2  H(1)              -0.01369     -61.17514     -21.82881     -20.40583
 --------------------------------------------------------
       Center         ----  Spin Dipole Couplings  ----
                      3XX-RR        3YY-RR        3ZZ-RR
 --------------------------------------------------------
     1   Atom        3.590610     -1.799060     -1.791550
     2   Atom       -0.024705     -0.181959      0.206664
 --------------------------------------------------------
                        XY            XZ            YZ
 --------------------------------------------------------
     1   Atom       -0.000000     -0.000000     -0.000000
     2   Atom        0.000000     -0.000000     -0.000000
 --------------------------------------------------------


 ---------------------------------------------------------------------------------
              Anisotropic Spin Dipole Couplings in Principal Axis System
 ---------------------------------------------------------------------------------

       Atom             a.u.   MegaHertz   Gauss  10(-4) cm-1        Axes

              Baa    -1.7991   130.179    46.451    43.423  0.0000  1.0000 -0.0000
     1 O(17)  Bbb    -1.7915   129.635    46.257    43.242  0.0000  0.0000  1.0000
              Bcc     3.5906  -259.814   -92.708   -86.665  1.0000 -0.0000 -0.0000
 
              Baa    -0.1820   -97.085   -34.642   -32.384 -0.0000  1.0000 -0.0000
     2 H(1)   Bbb    -0.0247   -13.181    -4.703    -4.397  1.0000 -0.0000 -0.0000
              Bcc     0.2067   110.266    39.346    36.781  0.0000  0.0000  1.0000
 

 ---------------------------------------------------------------------------------

 Calling FoFJK, ICntrl=      2127 FMM=F ISym2X=1 I1Cent= 0 IOpClX= 1 NMat=1 NMatS=1 NMatT=0.
 ***** Axes restored to original set *****
 -------------------------------------------------------------------
 Center     Atomic                   Forces (Hartrees/Bohr)
 Number     Number              X              Y              Z
 -------------------------------------------------------------------
      1        8           0.199798549    0.002830676   -0.000000000
      2        1          -0.199798549   -0.002830676    0.000000000
 -------------------------------------------------------------------
 Cartesian Forces:  Max     0.199798549 RMS     0.115365323

 GradGradGradGradGradGradGradGradGradGradGradGradGradGradGradGradGradGrad
 Berny optimization.
 FormGI is forming the generalized inverse of G from B-inverse, IUseBI=4.
 Internal  Forces:  Max     0.199818601 RMS     0.199818601
 Search for a local minimum.
 Step number   1 out of a maximum of   20
 All quantities printed in internal units (Hartrees-Bohrs-Radians)
 Mixed Optimization -- RFO/linear search
 Second derivative matrix not updated -- first step.
 The second derivative matrix:
                          R1
           R1           0.89046
 ITU=  0
     Eigenvalues ---    0.89046
 RFO step:  Lambda=-4.27836282D-02 EMin= 8.90458240D-01
 Linear search not attempted -- first point.
 Iteration  1 RMS(Cart)=  0.14142136 RMS(Int)=  0.01411234
 Iteration  2 RMS(Cart)=  0.00997893 RMS(Int)=  0.00000000
 Iteration  3 RMS(Cart)=  0.00000000 RMS(Int)=  0.00000000
 ClnCor:  largest displacement from symmetrization is 4.44D-16 for atom     2.
 Variable       Old X    -DE/DX   Delta X   Delta X   Delta X     New X
                                 (Linear)    (Quad)   (Total)
    R1        1.60076   0.19982   0.00000   0.21411   0.21411   1.81487
         Item               Value     Threshold  Converged?
 Maximum Force            0.199819     0.000450     NO 
 RMS     Force            0.199819     0.000300     NO 
 Maximum Displacement     0.107045     0.001800     NO 
 RMS     Displacement     0.151400     0.001200     NO 
 Predicted change in Energy=-2.237250D-02
 GradGradGradGradGradGradGradGradGradGradGradGradGradGradGradGradGradGrad

                          Input orientation:                          
 ---------------------------------------------------------------------
 Center     Atomic      Atomic             Coordinates (Angstroms)
 Number     Number       Type             X           Y           Z
 ---------------------------------------------------------------------
      1          8           0       -0.225354    0.618803   -0.000000
      2          1           0       -1.185646    0.605197    0.000000
 ---------------------------------------------------------------------
 Stoichiometry    HO(2)
 Framework group  C*V[C*(HO)]
 Deg. of freedom     1
 Full point group                 C*V     NOp   4
 Largest Abelian subgroup         C2V     NOp   4
 Largest concise Abelian subgroup C1      NOp   1
                         Standard orientation:                         
 ---------------------------------------------------------------------
 Center     Atomic      Atomic             Coordinates (Angstroms)
 Number     Number       Type             X           Y           Z
 ---------------------------------------------------------------------
      1          8           0        0.000000   -0.000000    0.106710
      2          1           0       -0.000000    0.000000   -0.853679
 ---------------------------------------------------------------------
 Rotational constants (GHZ):           0.0000000         577.9300123         577.9300123
 Standard basis: 6-31G(d,p) (6D, 7F)
 There are    11 symmetry adapted cartesian basis functions of A1  symmetry.
 There are     1 symmetry adapted cartesian basis functions of A2  symmetry.
 There are     4 symmetry adapted cartesian basis functions of B1  symmetry.
 There are     4 symmetry adapted cartesian basis functions of B2  symmetry.
 There are    11 symmetry adapted basis functions of A1  symmetry.
 There are     1 symmetry adapted basis functions of A2  symmetry.
 There are     4 symmetry adapted basis functions of B1  symmetry.
 There are     4 symmetry adapted basis functions of B2  symmetry.
    20 basis functions,    35 primitive gaussians,    20 cartesian basis functions
     5 alpha electrons        4 beta electrons
       nuclear repulsion energy         4.4080268018 Hartrees.
 NAtoms=    2 NActive=    2 NUniq=    2 SFac= 1.00D+00 NAtFMM=   60 NAOKFM=F Big=F
 Integral buffers will be    131072 words long.
 Raffenetti 2 integral format.
 Two-electron integral symmetry is turned on.
 One-electron integrals computed using PRISM.
 NBasis=    20 RedAO= T EigKep=  2.98D-02  NBF=    11     1     4     4
 NBsUse=    20 1.00D-06 EigRej= -1.00D+00 NBFU=    11     1     4     4
 Initial guess from the checkpoint file:  "/gpfs/home/gdb20/code/input_macros/temp/oh_radical_b3lyp_6-31++Gdp/oh_radical_b3lyp_6-31++Gdp.chk"
 B after Tr=     0.000000   -0.000000    0.000000
         Rot=    1.000000    0.000000    0.000000    0.000000 Ang=   0.00 deg.
 Initial guess orbital symmetries:
 Alpha Orbitals:
       Occupied  (SG) (SG) (SG) (PI) (PI)
       Virtual   (SG) (SG) (PI) (PI) (SG) (SG) (PI) (PI) (DLTA)
                 (DLTA) (SG) (PI) (PI) (SG) (SG)
 Beta  Orbitals:
       Occupied  (SG) (SG) (SG) (PI)
       Virtual   (PI) (SG) (SG) (PI) (SG) (PI) (SG) (PI) (PI) (DLTA)
                 (DLTA) (SG) (PI) (PI) (SG) (SG)
 Initial guess <Sx>= 0.0000 <Sy>= 0.0000 <Sz>= 0.5000 <S**2>= 0.7517 S= 0.5008
 ExpMin= 1.61D-01 ExpMax= 5.48D+03 ExpMxC= 8.25D+02 IAcc=3 IRadAn=         5 AccDes= 0.00D+00
 Harris functional with IExCor=  402 and IRadAn=       5 diagonalized for initial guess.
 HarFok:  IExCor=  402 AccDes= 0.00D+00 IRadAn=         5 IDoV= 1 UseB2=F ITyADJ=14
 ICtDFT=  3500011 ScaDFX=  1.000000  1.000000  1.000000  1.000000
 FoFCou: FMM=F IPFlag=           0 FMFlag=      100000 FMFlg1=           0
         NFxFlg=           0 DoJE=T BraDBF=F KetDBF=T FulRan=T
         wScrn=  0.000000 ICntrl=       500 IOpCl=  0 I1Cent=   200000004 NGrid=           0
         NMat0=    1 NMatS0=      1 NMatT0=    0 NMatD0=    1 NMtDS0=    0 NMtDT0=    0
 Petite list used in FoFCou.
 Keep R1 and R2 ints in memory in symmetry-blocked form, NReq=886690.
 Requested convergence on RMS density matrix=1.00D-08 within 128 cycles.
 Requested convergence on MAX density matrix=1.00D-06.
 Requested convergence on             energy=1.00D-06.
 No special actions if energy rises.
 Integral accuracy reduced to 1.0D-05 until final iterations.
 Initial convergence to 1.0D-05 achieved.  Increase integral accuracy.
 SCF Done:  E(UB3LYP) =  -75.7281406001     A.U. after   12 cycles
            NFock= 12  Conv=0.11D-08     -V/T= 2.0074
 <Sx>= 0.0000 <Sy>= 0.0000 <Sz>= 0.5000 <S**2>= 0.7518 S= 0.5009
 <L.S>= 0.000000000000E+00
 Annihilation of the first spin contaminant:
 S**2 before annihilation     0.7518,   after     0.7500
 Calling FoFJK, ICntrl=      2127 FMM=F ISym2X=1 I1Cent= 0 IOpClX= 1 NMat=1 NMatS=1 NMatT=0.
 ***** Axes restored to original set *****
 -------------------------------------------------------------------
 Center     Atomic                   Forces (Hartrees/Bohr)
 Number     Number              X              Y              Z
 -------------------------------------------------------------------
      1        8           0.019109677    0.000270739   -0.000000000
      2        1          -0.019109677   -0.000270739    0.000000000
 -------------------------------------------------------------------
 Cartesian Forces:  Max     0.019109677 RMS     0.011034084

 GradGradGradGradGradGradGradGradGradGradGradGradGradGradGradGradGradGrad
 Berny optimization.
 Using GEDIIS/GDIIS optimizer.
 Internal  Forces:  Max     0.019111595 RMS     0.019111595
 Search for a local minimum.
 Step number   2 out of a maximum of   20
 All quantities printed in internal units (Hartrees-Bohrs-Radians)
 Mixed Optimization -- RFO/linear search
 Update second derivatives using D2CorX and points    1    2
 DE= -2.10D-02 DEPred=-2.24D-02 R= 9.38D-01
 TightC=F SS=  1.41D+00  RLast= 2.14D-01 DXNew= 5.0454D-01 6.4234D-01
 Trust test= 9.38D-01 RLast= 2.14D-01 DXMaxT set to 5.05D-01
 The second derivative matrix:
                          R1
           R1           0.84398
 ITU=  1  0
 Use linear search instead of GDIIS.
     Eigenvalues ---    0.84398
 RFO step:  Lambda= 0.00000000D+00 EMin= 8.43982207D-01
 Quartic linear search produced a step of  0.17885.
 Iteration  1 RMS(Cart)=  0.02707869 RMS(Int)=  0.00000000
 Iteration  2 RMS(Cart)=  0.00000000 RMS(Int)=  0.00000000
 ClnCor:  largest displacement from symmetrization is 4.44D-16 for atom     2.
 Variable       Old X    -DE/DX   Delta X   Delta X   Delta X     New X
                                 (Linear)    (Quad)   (Total)
    R1        1.81487   0.01911   0.03830  -0.00000   0.03830   1.85317
         Item               Value     Threshold  Converged?
 Maximum Force            0.019112     0.000450     NO 
 RMS     Force            0.019112     0.000300     NO 
 Maximum Displacement     0.019146     0.001800     NO 
 RMS     Displacement     0.027079     0.001200     NO 
 Predicted change in Energy=-1.130249D-04
 GradGradGradGradGradGradGradGradGradGradGradGradGradGradGradGradGradGrad

                          Input orientation:                          
 ---------------------------------------------------------------------
 Center     Atomic      Atomic             Coordinates (Angstroms)
 Number     Number       Type             X           Y           Z
 ---------------------------------------------------------------------
      1          8           0       -0.215223    0.618946   -0.000000
      2          1           0       -1.195777    0.605054    0.000000
 ---------------------------------------------------------------------
 Stoichiometry    HO(2)
 Framework group  C*V[C*(HO)]
 Deg. of freedom     1
 Full point group                 C*V     NOp   4
 Largest Abelian subgroup         C2V     NOp   4
 Largest concise Abelian subgroup C1      NOp   1
                         Standard orientation:                         
 ---------------------------------------------------------------------
 Center     Atomic      Atomic             Coordinates (Angstroms)
 Number     Number       Type             X           Y           Z
 ---------------------------------------------------------------------
      1          8           0       -0.000000    0.000000    0.108961
      2          1           0        0.000000    0.000000   -0.871692
 ---------------------------------------------------------------------
 Rotational constants (GHZ):           0.0000000         554.2913480         554.2913480
 Standard basis: 6-31G(d,p) (6D, 7F)
 There are    11 symmetry adapted cartesian basis functions of A1  symmetry.
 There are     1 symmetry adapted cartesian basis functions of A2  symmetry.
 There are     4 symmetry adapted cartesian basis functions of B1  symmetry.
 There are     4 symmetry adapted cartesian basis functions of B2  symmetry.
 There are    11 symmetry adapted basis functions of A1  symmetry.
 There are     1 symmetry adapted basis functions of A2  symmetry.
 There are     4 symmetry adapted basis functions of B1  symmetry.
 There are     4 symmetry adapted basis functions of B2  symmetry.
    20 basis functions,    35 primitive gaussians,    20 cartesian basis functions
     5 alpha electrons        4 beta electrons
       nuclear repulsion energy         4.3169364176 Hartrees.
 NAtoms=    2 NActive=    2 NUniq=    2 SFac= 1.00D+00 NAtFMM=   60 NAOKFM=F Big=F
 Integral buffers will be    131072 words long.
 Raffenetti 2 integral format.
 Two-electron integral symmetry is turned on.
 One-electron integrals computed using PRISM.
 NBasis=    20 RedAO= T EigKep=  3.07D-02  NBF=    11     1     4     4
 NBsUse=    20 1.00D-06 EigRej= -1.00D+00 NBFU=    11     1     4     4
 Initial guess from the checkpoint file:  "/gpfs/home/gdb20/code/input_macros/temp/oh_radical_b3lyp_6-31++Gdp/oh_radical_b3lyp_6-31++Gdp.chk"
 B after Tr=    -0.000000    0.000000   -0.000000
         Rot=    1.000000    0.000000    0.000000    0.000000 Ang=   0.00 deg.
 Initial guess orbital symmetries:
 Alpha Orbitals:
       Occupied  (SG) (SG) (SG) (PI) (PI)
       Virtual   (SG) (SG) (PI) (SG) (PI) (SG) (PI) (PI) (?A) (?A)
                 (?A) (PI) (PI) (SG) (SG)
 Beta  Orbitals:
       Occupied  (SG) (SG) (SG) (PI)
       Virtual   (PI) (SG) (SG) (SG) (PI) (PI) (SG) (PI) (PI) (DLTA)
                 (DLTA) (SG) (PI) (PI) (SG) (SG)
 Initial guess <Sx>= 0.0000 <Sy>= 0.0000 <Sz>= 0.5000 <S**2>= 0.7519 S= 0.5009
 Keep R1 and R2 ints in memory in symmetry-blocked form, NReq=886690.
 Requested convergence on RMS density matrix=1.00D-08 within 128 cycles.
 Requested convergence on MAX density matrix=1.00D-06.
 Requested convergence on             energy=1.00D-06.
 No special actions if energy rises.
 SCF Done:  E(UB3LYP) =  -75.7284805079     A.U. after    8 cycles
            NFock=  8  Conv=0.39D-08     -V/T= 2.0078
 <Sx>= 0.0000 <Sy>= 0.0000 <Sz>= 0.5000 <S**2>= 0.7519 S= 0.5010
 <L.S>= 0.000000000000E+00
 Annihilation of the first spin contaminant:
 S**2 before annihilation     0.7519,   after     0.7500
 Calling FoFJK, ICntrl=      2127 FMM=F ISym2X=1 I1Cent= 0 IOpClX= 1 NMat=1 NMatS=1 NMatT=0.
 ***** Axes restored to original set *****
 -------------------------------------------------------------------
 Center     Atomic                   Forces (Hartrees/Bohr)
 Number     Number              X              Y              Z
 -------------------------------------------------------------------
      1        8          -0.000890703   -0.000012619   -0.000000000
      2        1           0.000890703    0.000012619    0.000000000
 -------------------------------------------------------------------
 Cartesian Forces:  Max     0.000890703 RMS     0.000514299

 GradGradGradGradGradGradGradGradGradGradGradGradGradGradGradGradGradGrad
 Berny optimization.
 Using GEDIIS/GDIIS optimizer.
 Internal  Forces:  Max     0.000890792 RMS     0.000890792
 Search for a local minimum.
 Step number   3 out of a maximum of   20
 All quantities printed in internal units (Hartrees-Bohrs-Radians)
 Mixed Optimization -- En-DIIS/RFO-DIIS
 Update second derivatives using D2CorX and points    2    3
 DE= -3.40D-04 DEPred=-1.13D-04 R= 3.01D+00
 TightC=F SS=  1.41D+00  RLast= 3.83D-02 DXNew= 8.4853D-01 1.1489D-01
 Trust test= 3.01D+00 RLast= 3.83D-02 DXMaxT set to 5.05D-01
 The second derivative matrix:
                          R1
           R1           0.52232
 ITU=  1  1
 Use linear search instead of GDIIS.
     Eigenvalues ---    0.52232
 RFO step:  Lambda= 0.00000000D+00 EMin= 5.22323037D-01
 Quartic linear search produced a step of -0.04769.
 Iteration  1 RMS(Cart)=  0.00129148 RMS(Int)=  0.00000000
 Iteration  2 RMS(Cart)=  0.00000000 RMS(Int)=  0.00000000
 ClnCor:  largest displacement from symmetrization is 4.44D-16 for atom     2.
 Variable       Old X    -DE/DX   Delta X   Delta X   Delta X     New X
                                 (Linear)    (Quad)   (Total)
    R1        1.85317  -0.00089  -0.00183   0.00000  -0.00183   1.85134
         Item               Value     Threshold  Converged?
 Maximum Force            0.000891     0.000450     NO 
 RMS     Force            0.000891     0.000300     NO 
 Maximum Displacement     0.000913     0.001800     YES
 RMS     Displacement     0.001291     0.001200     NO 
 Predicted change in Energy=-7.557745D-07
 GradGradGradGradGradGradGradGradGradGradGradGradGradGradGradGradGradGrad

                          Input orientation:                          
 ---------------------------------------------------------------------
 Center     Atomic      Atomic             Coordinates (Angstroms)
 Number     Number       Type             X           Y           Z
 ---------------------------------------------------------------------
      1          8           0       -0.215706    0.618939    0.000000
      2          1           0       -1.195294    0.605061   -0.000000
 ---------------------------------------------------------------------
 Stoichiometry    HO(2)
 Framework group  C*V[C*(HO)]
 Deg. of freedom     1
 Full point group                 C*V     NOp   4
 Largest Abelian subgroup         C2V     NOp   4
 Largest concise Abelian subgroup C1      NOp   1
                         Standard orientation:                         
 ---------------------------------------------------------------------
 Center     Atomic      Atomic             Coordinates (Angstroms)
 Number     Number       Type             X           Y           Z
 ---------------------------------------------------------------------
      1          8           0       -0.000000    0.000000    0.108854
      2          1           0        0.000000   -0.000000   -0.870833
 ---------------------------------------------------------------------
 Rotational constants (GHZ):           0.0000000         555.3855532         555.3855532
 Standard basis: 6-31G(d,p) (6D, 7F)
 There are    11 symmetry adapted cartesian basis functions of A1  symmetry.
 There are     1 symmetry adapted cartesian basis functions of A2  symmetry.
 There are     4 symmetry adapted cartesian basis functions of B1  symmetry.
 There are     4 symmetry adapted cartesian basis functions of B2  symmetry.
 There are    11 symmetry adapted basis functions of A1  symmetry.
 There are     1 symmetry adapted basis functions of A2  symmetry.
 There are     4 symmetry adapted basis functions of B1  symmetry.
 There are     4 symmetry adapted basis functions of B2  symmetry.
    20 basis functions,    35 primitive gaussians,    20 cartesian basis functions
     5 alpha electrons        4 beta electrons
       nuclear repulsion energy         4.3211952658 Hartrees.
 NAtoms=    2 NActive=    2 NUniq=    2 SFac= 1.00D+00 NAtFMM=   60 NAOKFM=F Big=F
 Integral buffers will be    131072 words long.
 Raffenetti 2 integral format.
 Two-electron integral symmetry is turned on.
 One-electron integrals computed using PRISM.
 NBasis=    20 RedAO= T EigKep=  3.07D-02  NBF=    11     1     4     4
 NBsUse=    20 1.00D-06 EigRej= -1.00D+00 NBFU=    11     1     4     4
 Initial guess from the checkpoint file:  "/gpfs/home/gdb20/code/input_macros/temp/oh_radical_b3lyp_6-31++Gdp/oh_radical_b3lyp_6-31++Gdp.chk"
 B after Tr=     0.000000   -0.000000   -0.000000
         Rot=    1.000000   -0.000000   -0.000000   -0.000000 Ang=   0.00 deg.
 Initial guess orbital symmetries:
 Alpha Orbitals:
       Occupied  (SG) (SG) (SG) (PI) (PI)
       Virtual   (SG) (SG) (PI) (SG) (PI) (SG) (PI) (PI) (?A) (?A)
                 (?A) (PI) (PI) (SG) (SG)
 Beta  Orbitals:
       Occupied  (SG) (SG) (SG) (PI)
       Virtual   (PI) (SG) (SG) (SG) (PI) (PI) (SG) (PI) (PI) (DLTA)
                 (DLTA) (SG) (PI) (PI) (SG) (SG)
 Initial guess <Sx>= 0.0000 <Sy>= 0.0000 <Sz>= 0.5000 <S**2>= 0.7519 S= 0.5010
 Keep R1 and R2 ints in memory in symmetry-blocked form, NReq=886690.
 Requested convergence on RMS density matrix=1.00D-08 within 128 cycles.
 Requested convergence on MAX density matrix=1.00D-06.
 Requested convergence on             energy=1.00D-06.
 No special actions if energy rises.
 SCF Done:  E(UB3LYP) =  -75.7284813218     A.U. after    7 cycles
            NFock=  7  Conv=0.35D-08     -V/T= 2.0078
 <Sx>= 0.0000 <Sy>= 0.0000 <Sz>= 0.5000 <S**2>= 0.7519 S= 0.5010
 <L.S>= 0.000000000000E+00
 Annihilation of the first spin contaminant:
 S**2 before annihilation     0.7519,   after     0.7500
 Calling FoFJK, ICntrl=      2127 FMM=F ISym2X=1 I1Cent= 0 IOpClX= 1 NMat=1 NMatS=1 NMatT=0.
 ***** Axes restored to original set *****
 -------------------------------------------------------------------
 Center     Atomic                   Forces (Hartrees/Bohr)
 Number     Number              X              Y              Z
 -------------------------------------------------------------------
      1        8           0.000000604    0.000000009    0.000000000
      2        1          -0.000000604   -0.000000009   -0.000000000
 -------------------------------------------------------------------
 Cartesian Forces:  Max     0.000000604 RMS     0.000000349

 GradGradGradGradGradGradGradGradGradGradGradGradGradGradGradGradGradGrad
 Berny optimization.
 Using GEDIIS/GDIIS optimizer.
 Internal  Forces:  Max     0.000000604 RMS     0.000000604
 Search for a local minimum.
 Step number   4 out of a maximum of   20
 All quantities printed in internal units (Hartrees-Bohrs-Radians)
 Mixed Optimization -- En-DIIS/RFO-DIIS
 Swapping is turned off.
 Update second derivatives using D2CorX and points    3    4
 DE= -8.14D-07 DEPred=-7.56D-07 R= 1.08D+00
 Trust test= 1.08D+00 RLast= 1.83D-03 DXMaxT set to 5.05D-01
 The second derivative matrix:
                          R1
           R1           0.48805
 ITU=  0  1
     Eigenvalues ---    0.48805
 En-DIIS/RFO-DIIS/Sim-DIIS IScMMF=       -3 using points:     4    3
 RFO step:  Lambda=-7.47596429D-13.
 DidBck=F Rises=F RFO-DIIS coefs:    0.99932    0.00068
 Iteration  1 RMS(Cart)=  0.00000088 RMS(Int)=  0.00000000
 ClnCor:  largest displacement from symmetrization is 5.55D-17 for atom     1.
 Variable       Old X    -DE/DX   Delta X   Delta X   Delta X     New X
                                 (Linear)    (Quad)   (Total)
    R1        1.85134   0.00000   0.00000  -0.00000   0.00000   1.85134
         Item               Value     Threshold  Converged?
 Maximum Force            0.000001     0.000450     YES
 RMS     Force            0.000001     0.000300     YES
 Maximum Displacement     0.000001     0.001800     YES
 RMS     Displacement     0.000001     0.001200     YES
 Predicted change in Energy=-3.737951D-13
 Optimization completed.
    -- Stationary point found.
                           ----------------------------
                           !   Optimized Parameters   !
                           ! (Angstroms and Degrees)  !
 --------------------------                            --------------------------
 ! Name  Definition              Value          Derivative Info.                !
 --------------------------------------------------------------------------------
 ! R1    R(1,2)                  0.9797         -DE/DX =    0.0                 !
 --------------------------------------------------------------------------------
 GradGradGradGradGradGradGradGradGradGradGradGradGradGradGradGradGradGrad

                          Input orientation:                          
 ---------------------------------------------------------------------
 Center     Atomic      Atomic             Coordinates (Angstroms)
 Number     Number       Type             X           Y           Z
 ---------------------------------------------------------------------
      1          8           0       -0.215706    0.618939    0.000000
      2          1           0       -1.195294    0.605061    0.000000
 ---------------------------------------------------------------------
 Stoichiometry    HO(2)
 Framework group  C*V[C*(HO)]
 Deg. of freedom     1
 Full point group                 C*V     NOp   4
 Largest Abelian subgroup         C2V     NOp   4
 Largest concise Abelian subgroup C1      NOp   1
                         Standard orientation:                         
 ---------------------------------------------------------------------
 Center     Atomic      Atomic             Coordinates (Angstroms)
 Number     Number       Type             X           Y           Z
 ---------------------------------------------------------------------
      1          8           0       -0.000000    0.000000    0.108854
      2          1           0        0.000000   -0.000000   -0.870833
 ---------------------------------------------------------------------
 Rotational constants (GHZ):           0.0000000         555.3855532         555.3855532

 **********************************************************************

            Population analysis using the SCF Density.

 **********************************************************************

 Orbital symmetries:
 Alpha Orbitals:
       Occupied  (SG) (SG) (SG) (PI) (PI)
       Virtual   (SG) (SG) (PI) (SG) (PI) (SG) (PI) (PI) (?A) (?A)
                 (?A) (PI) (PI) (SG) (SG)
 Beta  Orbitals:
       Occupied  (SG) (SG) (SG) (PI)
       Virtual   (PI) (SG) (SG) (SG) (PI) (PI) (SG) (PI) (PI) (DLTA)
                 (DLTA) (SG) (PI) (PI) (SG) (SG)
 Unable to determine electronic state:  partially filled degenerate orbitals.
 Alpha  occ. eigenvalues --  -19.21383  -1.00679  -0.46557  -0.40380  -0.32921
 Alpha virt. eigenvalues --    0.07181   0.73535   0.81650   0.83833   0.86480
 Alpha virt. eigenvalues --    1.06660   1.52081   1.55696   1.75246   1.75251
 Alpha virt. eigenvalues --    2.30175   2.58802   2.61378   3.29508   3.47211
  Beta  occ. eigenvalues --  -19.18921  -0.93615  -0.43938  -0.30240
  Beta virt. eigenvalues --   -0.15413   0.08066   0.74377   0.85636   0.88076
  Beta virt. eigenvalues --    0.91604   1.08817   1.56135   1.56637   1.81566
  Beta virt. eigenvalues --    1.82332   2.32258   2.61424   2.61453   3.32224
  Beta virt. eigenvalues --    3.49501
          Condensed to atoms (all electrons):
               1          2
     1  O    8.086893   0.237522
     2  H    0.237522   0.438063
          Atomic-Atomic Spin Densities.
               1          2
     1  O    1.025880   0.002829
     2  H    0.002829  -0.031538
 Mulliken charges and spin densities:
               1          2
     1  O   -0.324415   1.028709
     2  H    0.324415  -0.028709
 Sum of Mulliken charges =  -0.00000   1.00000
 Mulliken charges and spin densities with hydrogens summed into heavy atoms:
               1          2
     1  O   -0.000000   1.000000
 Electronic spatial extent (au):  <R**2>=             15.0525
 Charge=             -0.0000 electrons
 Dipole moment (field-independent basis, Debye):
    X=             -0.0000    Y=              0.0000    Z=             -1.7340  Tot=              1.7340
 Quadrupole moment (field-independent basis, Debye-Ang):
   XX=             -5.2742   YY=             -6.4000   ZZ=             -4.4741
   XY=              0.0000   XZ=              0.0000   YZ=             -0.0000
 Traceless Quadrupole moment (field-independent basis, Debye-Ang):
   XX=              0.1085   YY=             -1.0172   ZZ=              0.9087
   XY=              0.0000   XZ=              0.0000   YZ=             -0.0000
 Octapole moment (field-independent basis, Debye-Ang**2):
  XXX=             -0.0000  YYY=              0.0000  ZZZ=             -1.7874  XYY=             -0.0000
  XXY=              0.0000  XXZ=             -0.1512  XZZ=             -0.0000  YZZ=              0.0000
  YYZ=             -0.2520  XYZ=              0.0000
 Hexadecapole moment (field-independent basis, Debye-Ang**3):
 XXXX=             -3.3336 YYYY=             -4.5810 ZZZZ=             -5.1880 XXXY=              0.0000
 XXXZ=             -0.0000 YYYX=              0.0000 YYYZ=              0.0000 ZZZX=              0.0000
 ZZZY=             -0.0000 XXYY=             -1.3190 XXZZ=             -1.6452 YYZZ=             -1.8672
 XXYZ=              0.0000 YYXZ=             -0.0000 ZZXY=              0.0000
 N-N= 4.321195265775D+00 E-N=-1.877868243508D+02  KE= 7.514125223618D+01
 Symmetry A1   KE= 6.786259658729D+01
 Symmetry A2   KE= 1.643047021581D-34
 Symmetry B1   KE= 2.508634072829D+00
 Symmetry B2   KE= 4.770021576062D+00
 Symmetry A1   SP= 4.318485673227D-15
 Symmetry A2   SP= 8.465139604104D-36
 Symmetry B1   SP= 1.000000000000D+00
 Symmetry B2   SP=-3.328500669530D-16
                          Isotropic Fermi Contact Couplings
        Atom                 a.u.       MegaHertz       Gauss      10(-4) cm-1
     1  O(17)              0.08427     -51.08371     -18.22794     -17.03969
     2  H(1)              -0.01511     -67.54956     -24.10336     -22.53211
 --------------------------------------------------------
       Center         ----  Spin Dipole Couplings  ----
                      3XX-RR        3YY-RR        3ZZ-RR
 --------------------------------------------------------
     1   Atom        3.587788     -1.820485     -1.767303
     2   Atom       -0.038677     -0.130590      0.169266
 --------------------------------------------------------
                        XY            XZ            YZ
 --------------------------------------------------------
     1   Atom       -0.000000      0.000000     -0.000000
     2   Atom        0.000000     -0.000000     -0.000000
 --------------------------------------------------------


 ---------------------------------------------------------------------------------
              Anisotropic Spin Dipole Couplings in Principal Axis System
 ---------------------------------------------------------------------------------

       Atom             a.u.   MegaHertz   Gauss  10(-4) cm-1        Axes

              Baa    -1.8205   131.729    47.004    43.940 -0.0000  1.0000  0.0000
     1 O(17)  Bbb    -1.7673   127.881    45.631    42.656  0.0000  0.0000  1.0000
              Bcc     3.5878  -259.610   -92.635   -86.597  1.0000 -0.0000  0.0000
 
              Baa    -0.1306   -69.676   -24.862   -23.242 -0.0000  1.0000 -0.0000
     2 H(1)   Bbb    -0.0387   -20.636    -7.363    -6.883  1.0000  0.0000 -0.0000
              Bcc     0.1693    90.312    32.226    30.125  0.0000  0.0000  1.0000
 

 ---------------------------------------------------------------------------------

 Unable to Open any file for archive entry.
 1\1\GINC-HPC-I31-5\FOpt\UB3LYP\6-31G(d,p)\H1O1(2)\GDB20\05-Oct-2024\0\
 \#ub3lyp/6-31g(d,p) OPT FREQ\\created with so and so tool\\0,2\O,-0.21
 57057856,0.6189392333,0.\H,-1.1952942144,0.6050607667,0.\\Version=EM64
 L-G16RevC.01\HF=-75.7284813\S2=0.751907\S2-1=0.\S2A=0.750002\RMSD=3.46
 2e-09\RMSF=3.487e-07\Dipole=-0.6821584,-0.0096646,0.\Quadrupole=0.6752
 989,-0.7558108,0.0805118,0.0202795,-0.0001679,0.011854\PG=C*V [C*(H1O1
 )]\\@
 The archive entry for this job was punched.


 SACRED COWS MAKE GREAT HAMBURGERS -- ROBERT REISNER
 Job cpu time:       0 days  0 hours  0 minutes 11.9 seconds.
 Elapsed time:       0 days  0 hours  0 minutes 11.8 seconds.
 File lengths (MBytes):  RWF=    136 Int=      0 D2E=      0 Chk=     16 Scr=     16
 Normal termination of Gaussian 16 at Sat Oct  5 18:30:18 2024.
 Link1:  Proceeding to internal job step number  2.
 ----------------------------------------------------------------------
 #N Geom=AllCheck Guess=TCheck SCRF=Check GenChk UB3LYP/6-31G(d,p) Freq
 ----------------------------------------------------------------------
 1/10=4,29=7,30=1,38=1,40=1/1,3;
 2/12=2,40=1/2;
 3/5=1,6=6,7=101,11=2,14=-4,25=1,30=1,70=2,71=2,74=-5,116=2,140=1/1,2,3;
 4/5=101/1;
 5/5=2,38=6,98=1/2;
 8/6=4,10=90,11=11/1;
 11/6=1,8=1,9=11,15=111,16=1/1,2,10;
 10/6=1/2;
 6/7=2,8=2,9=2,10=2,28=1/1;
 7/8=1,10=1,25=1/1,2,3,16;
 1/10=4,30=1/3;
 99//99;
 Structure from the checkpoint file:  "/gpfs/home/gdb20/code/input_macros/temp/oh_radical_b3lyp_6-31++Gdp/oh_radical_b3lyp_6-31++Gdp.chk"
 ---------------------------
 created with so and so tool
 ---------------------------
 Charge =  0 Multiplicity = 2
 Redundant internal coordinates found in file.  (old form).
 O,0,-0.2157057856,0.6189392333,0.
 H,0,-1.1952942144,0.6050607667,0.
 Recover connectivity data from disk.

 GradGradGradGradGradGradGradGradGradGradGradGradGradGradGradGradGradGrad
 Berny optimization.
 Initialization pass.
                           ----------------------------
                           !    Initial Parameters    !
                           ! (Angstroms and Degrees)  !
 --------------------------                            --------------------------
 ! Name  Definition              Value          Derivative Info.                !
 --------------------------------------------------------------------------------
 ! R1    R(1,2)                  0.9797         calculate D2E/DX2 analytically  !
 --------------------------------------------------------------------------------
 Trust Radius=3.00D-01 FncErr=1.00D-07 GrdErr=1.00D-07 EigMax=2.50D+02 EigMin=1.00D-04
 Number of steps in this run=      2 maximum allowed number of steps=      2.
 GradGradGradGradGradGradGradGradGradGradGradGradGradGradGradGradGradGrad

                          Input orientation:                          
 ---------------------------------------------------------------------
 Center     Atomic      Atomic             Coordinates (Angstroms)
 Number     Number       Type             X           Y           Z
 ---------------------------------------------------------------------
      1          8           0       -0.215706    0.618939    0.000000
      2          1           0       -1.195294    0.605061    0.000000
 ---------------------------------------------------------------------
 Stoichiometry    HO(2)
 Framework group  C*V[C*(HO)]
 Deg. of freedom     1
 Full point group                 C*V     NOp   4
 Largest Abelian subgroup         C2V     NOp   4
 Largest concise Abelian subgroup C1      NOp   1
                         Standard orientation:                         
 ---------------------------------------------------------------------
 Center     Atomic      Atomic             Coordinates (Angstroms)
 Number     Number       Type             X           Y           Z
 ---------------------------------------------------------------------
      1          8           0       -0.000000    0.000000    0.108854
      2          1           0        0.000000   -0.000000   -0.870833
 ---------------------------------------------------------------------
 Rotational constants (GHZ):           0.0000000         555.3855532         555.3855532
 Standard basis: 6-31G(d,p) (6D, 7F)
 There are    11 symmetry adapted cartesian basis functions of A1  symmetry.
 There are     1 symmetry adapted cartesian basis functions of A2  symmetry.
 There are     4 symmetry adapted cartesian basis functions of B1  symmetry.
 There are     4 symmetry adapted cartesian basis functions of B2  symmetry.
 There are    11 symmetry adapted basis functions of A1  symmetry.
 There are     1 symmetry adapted basis functions of A2  symmetry.
 There are     4 symmetry adapted basis functions of B1  symmetry.
 There are     4 symmetry adapted basis functions of B2  symmetry.
    20 basis functions,    35 primitive gaussians,    20 cartesian basis functions
     5 alpha electrons        4 beta electrons
       nuclear repulsion energy         4.3211952658 Hartrees.
 NAtoms=    2 NActive=    2 NUniq=    2 SFac= 1.00D+00 NAtFMM=   60 NAOKFM=F Big=F
 Integral buffers will be    131072 words long.
 Raffenetti 2 integral format.
 Two-electron integral symmetry is turned on.
 One-electron integrals computed using PRISM.
 NBasis=    20 RedAO= T EigKep=  3.07D-02  NBF=    11     1     4     4
 NBsUse=    20 1.00D-06 EigRej= -1.00D+00 NBFU=    11     1     4     4
 Initial guess from the checkpoint file:  "/gpfs/home/gdb20/code/input_macros/temp/oh_radical_b3lyp_6-31++Gdp/oh_radical_b3lyp_6-31++Gdp.chk"
 B after Tr=    -0.000000    0.000000    0.000000
         Rot=    1.000000    0.000000    0.000000    0.000000 Ang=   0.00 deg.
 Initial guess orbital symmetries:
 Alpha Orbitals:
       Occupied  (SG) (SG) (SG) (PI) (PI)
       Virtual   (SG) (SG) (PI) (SG) (PI) (SG) (PI) (PI) (?A) (?A)
                 (?A) (PI) (PI) (SG) (SG)
 Beta  Orbitals:
       Occupied  (SG) (SG) (SG) (PI)
       Virtual   (PI) (SG) (SG) (SG) (PI) (PI) (SG) (PI) (PI) (DLTA)
                 (DLTA) (SG) (PI) (PI) (SG) (SG)
 Initial guess <Sx>= 0.0000 <Sy>= 0.0000 <Sz>= 0.5000 <S**2>= 0.7519 S= 0.5010
 Keep R1 and R2 ints in memory in symmetry-blocked form, NReq=886690.
 Requested convergence on RMS density matrix=1.00D-08 within 128 cycles.
 Requested convergence on MAX density matrix=1.00D-06.
 Requested convergence on             energy=1.00D-06.
 No special actions if energy rises.
 SCF Done:  E(UB3LYP) =  -75.7284813218     A.U. after    1 cycles
            NFock=  1  Conv=0.22D-09     -V/T= 2.0078
 <Sx>= 0.0000 <Sy>= 0.0000 <Sz>= 0.5000 <S**2>= 0.7519 S= 0.5010
 <L.S>= 0.000000000000E+00
 Annihilation of the first spin contaminant:
 S**2 before annihilation     0.7519,   after     0.7500
 DoSCS=F DFT=T ScalE2(SS,OS)=  1.000000  1.000000
 Range of M.O.s used for correlation:     1    20
 NBasis=    20 NAE=     5 NBE=     4 NFC=     0 NFV=     0
 NROrb=     20 NOA=     5 NOB=     4 NVA=    15 NVB=    16
 Symmetrizing basis deriv contribution to polar:
 IMax=3 JMax=2 DiffMx= 0.00D+00
 G2DrvN: will do     3 centers at a time, making    1 passes.
 Calling FoFCou, ICntrl=  3107 FMM=F I1Cent=   0 AccDes= 0.00D+00.
 End of G2Drv F.D. properties file   721 does not exist.
 End of G2Drv F.D. properties file   722 does not exist.
 End of G2Drv F.D. properties file   788 does not exist.
          IDoAtm=11
          Differentiating once with respect to electric field.
                with respect to dipole field.
          Differentiating once with respect to nuclear coordinates.
 Keep R1 and R2 ints in memory in symmetry-blocked form, NReq=885274.
          There are     9 degrees of freedom in the 1st order CPHF.  IDoFFX=6 NUNeed=     3.
      6 vectors produced by pass  0 Test12= 1.54D-15 1.11D-08 XBig12= 6.13D+00 1.68D+00.
 AX will form     6 AO Fock derivatives at one time.
      6 vectors produced by pass  1 Test12= 1.54D-15 1.11D-08 XBig12= 5.64D-01 3.07D-01.
      6 vectors produced by pass  2 Test12= 1.54D-15 1.11D-08 XBig12= 4.34D-03 2.70D-02.
      6 vectors produced by pass  3 Test12= 1.54D-15 1.11D-08 XBig12= 5.93D-05 4.21D-03.
      6 vectors produced by pass  4 Test12= 1.54D-15 1.11D-08 XBig12= 3.54D-07 2.67D-04.
      6 vectors produced by pass  5 Test12= 1.54D-15 1.11D-08 XBig12= 1.15D-09 1.65D-05.
      4 vectors produced by pass  6 Test12= 1.54D-15 1.11D-08 XBig12= 5.07D-12 1.04D-06.
      1 vectors produced by pass  7 Test12= 1.54D-15 1.11D-08 XBig12= 1.51D-14 4.54D-08.
 InvSVY:  IOpt=1 It=  1 EMax= 2.22D-16
 Solved reduced A of dimension    41 with     6 vectors.
 Isotropic polarizability for W=    0.000000        3.92 Bohr**3.
 End of Minotr F.D. properties file   721 does not exist.
 End of Minotr F.D. properties file   722 does not exist.
 End of Minotr F.D. properties file   788 does not exist.

 **********************************************************************

            Population analysis using the SCF Density.

 **********************************************************************

 Orbital symmetries:
 Alpha Orbitals:
       Occupied  (SG) (SG) (SG) (PI) (PI)
       Virtual   (SG) (SG) (PI) (SG) (PI) (SG) (PI) (PI) (?A) (?A)
                 (?A) (PI) (PI) (SG) (SG)
 Beta  Orbitals:
       Occupied  (SG) (SG) (SG) (PI)
       Virtual   (PI) (SG) (SG) (SG) (PI) (PI) (SG) (PI) (PI) (DLTA)
                 (DLTA) (SG) (PI) (PI) (SG) (SG)
 Unable to determine electronic state:  partially filled degenerate orbitals.
 Alpha  occ. eigenvalues --  -19.21383  -1.00679  -0.46557  -0.40380  -0.32921
 Alpha virt. eigenvalues --    0.07181   0.73535   0.81650   0.83833   0.86480
 Alpha virt. eigenvalues --    1.06660   1.52081   1.55696   1.75246   1.75251
 Alpha virt. eigenvalues --    2.30175   2.58802   2.61378   3.29508   3.47211
  Beta  occ. eigenvalues --  -19.18921  -0.93615  -0.43938  -0.30240
  Beta virt. eigenvalues --   -0.15413   0.08066   0.74377   0.85636   0.88076
  Beta virt. eigenvalues --    0.91604   1.08817   1.56135   1.56637   1.81566
  Beta virt. eigenvalues --    1.82332   2.32258   2.61424   2.61453   3.32224
  Beta virt. eigenvalues --    3.49501
          Condensed to atoms (all electrons):
               1          2
     1  O    8.086893   0.237522
     2  H    0.237522   0.438063
          Atomic-Atomic Spin Densities.
               1          2
     1  O    1.025880   0.002829
     2  H    0.002829  -0.031538
 Mulliken charges and spin densities:
               1          2
     1  O   -0.324415   1.028709
     2  H    0.324415  -0.028709
 Sum of Mulliken charges =  -0.00000   1.00000
 Mulliken charges and spin densities with hydrogens summed into heavy atoms:
               1          2
     1  O   -0.000000   1.000000
 APT charges:
               1
     1  O   -0.261411
     2  H    0.261411
 Sum of APT charges =  -0.00000
 APT charges with hydrogens summed into heavy atoms:
               1
     1  O   -0.000000
 Electronic spatial extent (au):  <R**2>=             15.0525
 Charge=              0.0000 electrons
 Dipole moment (field-independent basis, Debye):
    X=              0.0000    Y=             -0.0000    Z=             -1.7340  Tot=              1.7340
 Quadrupole moment (field-independent basis, Debye-Ang):
   XX=             -5.2742   YY=             -6.4000   ZZ=             -4.4741
   XY=              0.0000   XZ=             -0.0000   YZ=              0.0000
 Traceless Quadrupole moment (field-independent basis, Debye-Ang):
   XX=              0.1085   YY=             -1.0172   ZZ=              0.9087
   XY=              0.0000   XZ=             -0.0000   YZ=              0.0000
 Octapole moment (field-independent basis, Debye-Ang**2):
  XXX=             -0.0000  YYY=              0.0000  ZZZ=             -1.7874  XYY=             -0.0000
  XXY=              0.0000  XXZ=             -0.1512  XZZ=             -0.0000  YZZ=              0.0000
  YYZ=             -0.2520  XYZ=              0.0000
 Hexadecapole moment (field-independent basis, Debye-Ang**3):
 XXXX=             -3.3336 YYYY=             -4.5810 ZZZZ=             -5.1880 XXXY=              0.0000
 XXXZ=              0.0000 YYYX=              0.0000 YYYZ=              0.0000 ZZZX=             -0.0000
 ZZZY=              0.0000 XXYY=             -1.3190 XXZZ=             -1.6452 YYZZ=             -1.8672
 XXYZ=              0.0000 YYXZ=             -0.0000 ZZXY=              0.0000
 N-N= 4.321195265775D+00 E-N=-1.877868243970D+02  KE= 7.514125225860D+01
 Symmetry A1   KE= 6.786259659583D+01
 Symmetry A2   KE= 1.146901627234D-34
 Symmetry B1   KE= 2.508634081117D+00
 Symmetry B2   KE= 4.770021581661D+00
 Symmetry A1   SP= 4.708364774453D-15
 Symmetry A2   SP= 7.876563596071D-36
 Symmetry B1   SP= 1.000000000000D+00
 Symmetry B2   SP= 7.453347834752D-16
  Exact polarizability:       2.860       0.000       2.519       0.000       0.000       6.383
 Approx polarizability:       3.372      -0.000       2.700      -0.000       0.000       7.972
                          Isotropic Fermi Contact Couplings
        Atom                 a.u.       MegaHertz       Gauss      10(-4) cm-1
     1  O(17)              0.08427     -51.08371     -18.22794     -17.03969
     2  H(1)              -0.01511     -67.54955     -24.10336     -22.53210
 --------------------------------------------------------
       Center         ----  Spin Dipole Couplings  ----
                      3XX-RR        3YY-RR        3ZZ-RR
 --------------------------------------------------------
     1   Atom        3.587788     -1.820485     -1.767303
     2   Atom       -0.038677     -0.130590      0.169266
 --------------------------------------------------------
                        XY            XZ            YZ
 --------------------------------------------------------
     1   Atom       -0.000000      0.000000     -0.000000
     2   Atom       -0.000000      0.000000      0.000000
 --------------------------------------------------------


 ---------------------------------------------------------------------------------
              Anisotropic Spin Dipole Couplings in Principal Axis System
 ---------------------------------------------------------------------------------

       Atom             a.u.   MegaHertz   Gauss  10(-4) cm-1        Axes

              Baa    -1.8205   131.729    47.004    43.940  0.0000  1.0000  0.0000
     1 O(17)  Bbb    -1.7673   127.881    45.631    42.656  0.0000  0.0000  1.0000
              Bcc     3.5878  -259.610   -92.635   -86.597  1.0000 -0.0000  0.0000
 
              Baa    -0.1306   -69.676   -24.862   -23.242 -0.0000  1.0000 -0.0000
     2 H(1)   Bbb    -0.0387   -20.636    -7.363    -6.883  1.0000 -0.0000 -0.0000
              Bcc     0.1693    90.312    32.226    30.125  0.0000  0.0000  1.0000
 

 ---------------------------------------------------------------------------------

 Calling FoFJK, ICntrl=    100127 FMM=F ISym2X=1 I1Cent= 0 IOpClX= 1 NMat=1 NMatS=1 NMatT=0.
 Full mass-weighted force constant matrix:
 Low frequencies ---   -6.1255   -0.0014    0.0017    0.0020   21.6360 3694.3975
 Diagonal vibrational polarizability:
        0.0000000       0.0000000       0.0045346
 Harmonic frequencies (cm**-1), IR intensities (KM/Mole), Raman scattering
 activities (A**4/AMU), depolarization ratios for plane and unpolarized
 incident light, reduced masses (AMU), force constants (mDyne/A),
 and normal coordinates:
                      1
                     SG
 Frequencies --   3694.3975
 Red. masses --      1.0671
 Frc consts  --      8.5810
 IR Inten    --      2.2998
  Atom  AN      X      Y      Z
     1   8     0.00  -0.00  -0.06
     2   1    -0.00   0.00   1.00

 -------------------
 - Thermochemistry -
 -------------------
 Temperature   298.150 Kelvin.  Pressure   1.00000 Atm.
 Atom     1 has atomic number  8 and mass  15.99491
 Atom     2 has atomic number  1 and mass   1.00783
 Molecular mass:    17.00274 amu.
 Principal axes and moments of inertia in atomic units:
                           1         2         3
     Eigenvalues --     0.00000   3.24953   3.24953
           X           -0.00000   0.99983  -0.01868
           Y            0.00000   0.01868   0.99983
           Z            1.00000   0.00000  -0.00000
 This molecule is a prolate symmetric top.
 Rotational symmetry number  1.
 Rotational temperature (Kelvin)     26.65430
 Rotational constant (GHZ):         555.385553
 Zero-point vibrational energy      22097.4 (Joules/Mol)
                                    5.28141 (Kcal/Mol)
 Vibrational temperatures:   5315.41
          (Kelvin)
 
 Zero-point correction=                           0.008416 (Hartree/Particle)
 Thermal correction to Energy=                    0.010777
 Thermal correction to Enthalpy=                  0.011721
 Thermal correction to Gibbs Free Energy=        -0.008519
 Sum of electronic and zero-point Energies=            -75.720065
 Sum of electronic and thermal Energies=               -75.717704
 Sum of electronic and thermal Enthalpies=             -75.716760
 Sum of electronic and thermal Free Energies=          -75.737001
 
                     E (Thermal)             CV                S
                      KCal/Mol        Cal/Mol-Kelvin    Cal/Mol-Kelvin
 Total                    6.763              4.968             42.600
 Electronic               0.000              0.000              1.377
 Translational            0.889              2.981             34.437
 Rotational               0.592              1.987              6.786
 Vibrational              5.281              0.000              0.000
                       Q            Log10(Q)             Ln(Q)
 Total Bot       0.829148D+04          3.918632          9.022983
 Total V=0       0.616495D+08          7.789930         17.936976
 Vib (Bot)       0.134494D-03         -3.871298         -8.913993
 Vib (V=0)       0.100000D+01          0.000000          0.000000
 Electronic      0.200000D+01          0.301030          0.693147
 Translational   0.275570D+07          6.440232         14.829183
 Rotational      0.111858D+02          1.048667          2.414646
 ***** Axes restored to original set *****
 -------------------------------------------------------------------
 Center     Atomic                   Forces (Hartrees/Bohr)
 Number     Number              X              Y              Z
 -------------------------------------------------------------------
      1        8           0.000000603    0.000000009   -0.000000000
      2        1          -0.000000603   -0.000000009    0.000000000
 -------------------------------------------------------------------
 Cartesian Forces:  Max     0.000000603 RMS     0.000000348
 FormGI is forming the generalized inverse of G from B-inverse, IUseBI=4.

 GradGradGradGradGradGradGradGradGradGradGradGradGradGradGradGradGradGrad
 Berny optimization.
 Internal  Forces:  Max     0.000000603 RMS     0.000000603
 Search for a local minimum.
 Step number   1 out of a maximum of    2
 All quantities printed in internal units (Hartrees-Bohrs-Radians)
 Second derivative matrix not updated -- analytic derivatives used.
 The second derivative matrix:
                          R1
           R1           0.48970
 ITU=  0
     Eigenvalues ---    0.48970
 Angle between quadratic step and forces=  90.00 degrees.
 Linear search not attempted -- first point.
 Iteration  1 RMS(Cart)=  0.00000087 RMS(Int)=  0.00000000
 ClnCor:  largest displacement from symmetrization is 4.44D-16 for atom     2.
 Variable       Old X    -DE/DX   Delta X   Delta X   Delta X     New X
                                 (Linear)    (Quad)   (Total)
    R1        1.85134   0.00000   0.00000   0.00000   0.00000   1.85134
         Item               Value     Threshold  Converged?
 Maximum Force            0.000001     0.000450     YES
 RMS     Force            0.000001     0.000300     YES
 Maximum Displacement     0.000001     0.001800     YES
 RMS     Displacement     0.000001     0.001200     YES
 Predicted change in Energy=-3.716211D-13
 Optimization completed.
    -- Stationary point found.
                           ----------------------------
                           !   Optimized Parameters   !
                           ! (Angstroms and Degrees)  !
 --------------------------                            --------------------------
 ! Name  Definition              Value          Derivative Info.                !
 --------------------------------------------------------------------------------
 ! R1    R(1,2)                  0.9797         -DE/DX =    0.0                 !
 --------------------------------------------------------------------------------
 GradGradGradGradGradGradGradGradGradGradGradGradGradGradGradGradGradGrad


 ----------------------------------------------------------------------

 Electric dipole moment (input orientation):
 (Debye = 10**-18 statcoulomb cm , SI units = C m)
                  (au)            (Debye)         (10**-30 SI)
   Tot        0.682227D+00      0.173405D+01      0.578416D+01
   x         -0.682158D+00     -0.173387D+01     -0.578358D+01
   y         -0.966458D-02     -0.245649D-01     -0.819397D-01
   z          0.000000D+00      0.000000D+00      0.000000D+00

 Dipole polarizability, Alpha (input orientation).
 (esu units = cm**3 , SI units = C**2 m**2 J**-1)
 Alpha(0;0):
               (au)            (10**-24 esu)      (10**-40 SI)
   iso        0.392065D+01      0.580981D+00      0.646428D+00
   aniso      0.370528D+01      0.549066D+00      0.610918D+00
   xx         0.638225D+01      0.945752D+00      0.105229D+01
   yx         0.547262D-01      0.810959D-02      0.902314D-02
   yy         0.252026D+01      0.373465D+00      0.415535D+00
   zx        -0.682440D-04     -0.101127D-04     -0.112519D-04
   zy         0.481689D-02      0.713789D-03      0.794197D-03
   zz         0.285945D+01      0.423726D+00      0.471459D+00

 ----------------------------------------------------------------------

 Dipole orientation:
     8         -0.01664932          1.17516484          0.39101477
     1         -0.01664932          1.17516484          2.24235439

 Electric dipole moment (dipole orientation):
 (Debye = 10**-18 statcoulomb cm , SI units = C m)
                  (au)            (Debye)         (10**-30 SI)
   Tot        0.682227D+00      0.173405D+01      0.578416D+01
   x          0.000000D+00      0.000000D+00      0.000000D+00
   y          0.000000D+00      0.000000D+00      0.000000D+00
   z          0.682227D+00      0.173405D+01      0.578416D+01

 Dipole polarizability, Alpha (dipole orientation).
 (esu units = cm**3 , SI units = C**2 m**2 J**-1)
 Alpha(0;0):
               (au)            (10**-24 esu)      (10**-40 SI)
   iso        0.392065D+01      0.580981D+00      0.646428D+00
   aniso      0.370528D+01      0.549066D+00      0.610918D+00
   xx         0.285924D+01      0.423696D+00      0.471425D+00
   yx         0.963087D-02      0.142715D-02      0.158792D-02
   yy         0.251969D+01      0.373380D+00      0.415441D+00
   zx         0.000000D+00      0.000000D+00      0.000000D+00
   zy         0.000000D+00      0.000000D+00      0.000000D+00
   zz         0.638302D+01      0.945866D+00      0.105242D+01

 ----------------------------------------------------------------------
 Unable to Open any file for archive entry.
 1\1\GINC-HPC-I31-5\Freq\UB3LYP\6-31G(d,p)\H1O1(2)\GDB20\05-Oct-2024\0\
 \#N Geom=AllCheck Guess=TCheck SCRF=Check GenChk UB3LYP/6-31G(d,p) Fre
 q\\created with so and so tool\\0,2\O,-0.2157057856,0.6189392333,0.\H,
 -1.1952942144,0.6050607667,0.\\Version=EM64L-G16RevC.01\HF=-75.7284813
 \S2=0.751907\S2-1=0.\S2A=0.750002\RMSD=2.210e-10\RMSF=3.483e-07\ZeroPo
 int=0.0084165\Thermal=0.0107769\ETot=-75.7177044\HTot=-75.7167602\GTot
 =-75.7370007\Dipole=-0.6821584,-0.0096646,0.\DipoleDeriv=-0.0473573,0.
 0045497,0.,0.0045497,-0.368428,0.0000006,0.,0.0000006,-0.3684482,0.047
 3573,-0.0045497,0.,-0.0045497,0.368428,-0.0000006,0.,-0.0000006,0.3684
 482\Polar=6.3822482,0.0547262,2.5202637,-0.0000682,0.0048169,2.8594461
 \Quadrupole=0.6752989,-0.7558108,0.0805118,0.0202795,-0.0001679,0.0118
 54\PG=C*V [C*(H1O1)]\NImag=0\\0.48959805,0.00693647,0.00009693,0.,0.00
 000026,0.00001679,-0.48959805,-0.00693647,0.,0.48959805,-0.00693647,-0
 .00009693,-0.00000026,0.00693647,0.00009693,0.,-0.00000026,-0.00001679
 ,0.,0.00000026,0.00001679\\-0.00000060,0.,0.,0.00000060,0.,0.\\\@
 The archive entry for this job was punched.


 "ANNA, YOU MUSN'T SPEAK OF OXIDIZED MURIATIC ACID
 ANYMORE, FROM NOW ON YOU MUST SAY CHLORINE."
   -- JENS JACOB BERZELIUS, IN 1820, TO HIS COOK, WHO HAD
 COMPLAINED OF THE SMELL OF THE FLASK SHE WAS CLEANING.
 Job cpu time:       0 days  0 hours  0 minutes  5.9 seconds.
 Elapsed time:       0 days  0 hours  0 minutes  5.8 seconds.
 File lengths (MBytes):  RWF=    136 Int=      0 D2E=      0 Chk=     16 Scr=     16
 Normal termination of Gaussian 16 at Sat Oct  5 18:30:24 2024.
